# vtk DataFile Version 3.0
3D scalar data
ASCII
DATASET POLYDATA
POINTS 23058 float
-86.36 28.75 9.32
16. -32.15 31.02
49.75 1.233 76.98
4.968 -42.13 31.44
10.98 61.62 -21.2
17.8 -17.3 -45.62
6.001 21.2 -7.925
-56.11 3.021 -14.29
46.96 -23.7 -28.1
9.138 6.651 27.86
17.46 2.362 -30.87
-6.14 15.73 -12.03
39.93 27.24 2.572
22.26 84.28 66.2
-65.21 7.762 3.013
-42.5 -72.78 78.99
80.49 -11.27 4.413
64.47 -40.5 0.5248
-97.9 -30.16 -105.7
-12.35 -44.91 30.21
27.06 22.42 86.89
78.81 71.01 -74.27
13.73 47.65 -13.52
-5.268 39.78 -16.42
-20.45 -6.438 15.11
-41.06 -37.53 -34.55
23.09 93.77 73.51
-40.61 -110.4 24.27
-28.5 28.44 50.33
15.98 2.522 45.68
-39.49 -92.12 -22.8
57.38 -22.87 -11.71
96.63 77.45 5.232
28.65 -38.29 133.1
72.69 -50.92 25.27
-0.07522 37.86 -34.41
-63.77 -57.2 -50.55
4.006 53.56 -108.9
-9.95 6.227 18.36
-2.679 52.06 -30.81
8.173 7.549 42.38
122.9 19.87 97.81
28.71 -17.48 69.07
-35.05 -24.1 -24.04
-19.55 -23.94 -44.31
40.29 8.442 27.98
85.68 15.28 0.6781
53.47 25.23 14.83
-55.25 -9.957 43.09
-60.43 55.89 55.17
-11.83 118.8 -76.07
48.14 0.3062 -43.
-5.391 -20.57 -15.8
133. -13.71 -69.38
110.8 66.54 78.48
-27. 31.54 13.51
-2.55 46.66 60.21
-16.65 -49.44 -21.16
-39.52 -14.47 19.2
34.7 -10.35 -10.9
50.88 65.02 -17.76
93.96 36.45 55.31
34.44 -82.53 19.36
50.59 -27.94 36.87
9.359 -59.22 -26.64
45.77 -52.28 14.86
-52.19 37.73 -35.85
-0.9438 29.81 5.122
49.08 -10.46 -11.39
-28.58 -41.02 11.22
-5.991 40.77 106.4
28.99 8.587 -121.
60.83 -12.41 66.2
-49.06 15.42 -58.63
-13.44 17.86 -51.26
-5.953 -52.18 42.64
-84.11 -92.9 3.16
-25.17 53.88 -10.7
7.209 -11.73 24.15
-73.47 -57.36 -6.933
-39.65 16.51 6.227
81.17 77.26 19.26
-5.66 30.95 -27.26
-7.589 -25.5 12.09
14.62 121.1 86.31
116.9 22.17 88.13
35.83 75.59 -26.68
17.33 0.09598 -46.41
52.03 -3.992 -51.6
-34.24 82.68 42.79
-1.786 -43.24 77.33
-82.06 44.29 0.5461
22.94 -35.33 -85.02
-54.53 64.57 21.93
11.1 -23.28 28.26
103.3 10.58 40.68
4.926 -4.487 -0.02065
3.706 -21.13 -18.6
25.69 63.87 -25.73
-81.45 19.7 -15.83
-15.76 -91.56 -66.2
38.97 36.62 -42.22
-37.34 10.18 82.84
-51.22 -59.44 88.56
-24.21 27.96 23.34
36.78 -57.41 -69.07
-11.4 -65.05 86.92
-112.8 87.19 38.71
8.557 -63.41 12.09
32.84 16.62 4.835
24.7 56.24 36.35
114.3 -31.92 -2.865
-75.09 19.88 43.92
75.37 -25.87 56.32
70.61 -0.06501 -13.28
-0.4799 -141.5 -2.198
17.73 -61.65 30.68
28.66 -22.82 24.75
48.23 -101.3 -22.15
34.45 -0.5271 55.76
-21. -10.31 1.487
72.77 -87.39 -67.75
-33.2 -31.62 -18.21
-8.522 1.073 26.84
10.34 -21.26 -39.4
-117. -2.147 30.05
34.98 -74.09 -29.12
7.831 17.28 -71.57
37.59 -38. 4.214
-70.88 -41.92 -65.51
46.35 -28.73 72.69
106.8 -7.685 28.75
-8.925 39.68 3.356
147.1 43.28 -27.58
27.31 7.629 -11.17
-63.43 35.42 -25.85
-83.65 -45.05 57.68
48.64 6.292 -20.39
-35.45 26.38 -47.52
54.43 24.32 23.57
25.31 0.9983 11.63
-17.37 17.2 23.04
-24.4 1.745 76.85
13.63 0.1893 -61.99
24.31 10.34 19.57
-97.48 3.08 39.72
-91.03 -18.87 -53.93
-38.74 -26.39 -14.84
11.67 46.72 -46.22
2.5 3.076 6.173
53.67 4.305 -62.86
-11.85 93.55 62.43
-18.67 -90.4 -3.994
0.3685 11.45 -83.91
48.46 -106. -10.82
-18.32 1.282 -0.3435
48.46 16.76 -53.79
11.45 53.68 11.53
72.37 39.44 -74.38
5.716 49.61 31.31
22.53 76.37 18.94
29.89 -51.29 -50.35
-82.65 87.09 79.71
14.98 15.64 6.548
8.036 -27.7 11.31
-50.68 -19.33 44.3
-22.51 -69.16 -3.684
102.3 -40.27 -88.99
12.77 88.78 11.02
39.14 80.67 78.09
103. 35.49 95.01
-11.27 -16.6 -23.03
-30.32 72.74 -30.72
1.095 -1.754 -45.64
-1.792 98.25 -9.579
-25.04 2.383 54.18
11.83 -7.368 -66.84
10.27 -37.59 44.89
33.56 -122.3 -66.95
4.136 -78.03 128.7
13.91 28.85 -82.15
-7.84 -37.37 -98.71
49.1 74.66 -10.57
-52.5 62.57 -32.9
3.686 78.42 -41.55
14.97 -19.81 42.37
-28.97 69.54 83.95
-11.98 93.73 34.36
-35.36 5.592 21.13
33.53 93.27 43.05
16.53 -45.8 -12.23
48.02 51.18 -71.82
-36.81 47.39 81.62
15.69 10.67 -24.9
19.02 -11.75 -7.83
-10.99 -85.42 -16.26
28.54 17.69 -1.163
-67.62 -21.49 -1.314
-11.07 46.38 116.1
-23.79 61.35 9.543
-32.57 -75.98 43.08
31.37 -8.142 9.963
-6.507 39.39 21.52
-48.91 19.68 -137.7
30.17 93.54 -2.934
-64.75 33.89 60.65
28.83 32.24 95.56
-32.14 22.47 18.69
-1.191 -76.56 39.04
27.89 -60.24 11.78
96.65 -70.27 21.94
50.67 -24.08 -54.7
61.23 1.941 8.759
123.7 -27.83 24.25
-29. -8.087 -1.68
67.25 -78.32 56.29
87.04 31.15 -21.26
94.62 83.56 13.02
45.17 -21.77 23.18
31.91 -57.81 31.9
64.23 13.78 -20.58
24.17 -49.77 43.02
136.2 -45.93 25.5
0.2798 -11.41 5.999
-1.196 -49.81 35.58
54.31 -55.74 -49.53
-42.06 -33.92 -8.05
63.57 1.804 98.41
-57.17 -43.63 -19.43
-69.17 -45.57 -54.41
54. -47.19 54.45
23.19 -95.47 -41.19
22.33 -39.17 62.91
-94.63 -46.43 20.53
45.84 -91.75 -51.48
50.61 -25.58 2.289
-12.34 -11.18 93.73
4.43 -20.31 43.06
0.2804 -17.3 -44.19
16.76 -27.6 -68.4
-46.9 42.3 -78.48
-44.09 6.371 -63.51
-36.21 2.182 -43.24
-86.36 -57.85 56.41
37.85 36.99 8.735
57.94 57.3 -129.7
71.1 -92.35 62.02
41.49 -30.79 -3.075
21.22 -36.38 -11.47
-36.83 86.92 2.093
-55.65 -87.08 7.524
8.301 64.99 45.69
46.46 61.22 72.6
-16.03 9.472 -44.56
111.5 44.97 -69.43
-60.55 -0.8362 -40.22
102.6 1.988 33.07
12.98 -35.52 -42.9
107.7 54.35 -78.4
101.4 -65.06 57.
-80.92 42.43 -35.38
-18.05 24.77 -52.63
-21.41 25.51 20.67
38.87 -5.353 31.53
-22.14 44.62 -15.87
-25.72 -31.48 19.64
18.88 -23.53 33.3
55.2 -12.69 -23.67
-16.52 73.35 -45.46
71.38 -26.63 -29.47
92.67 -18.21 68.9
32.56 25.31 19.07
-57.83 9.755 -34.24
-3.872 26.58 56.15
-34.84 24.48 33.24
-31.74 28.91 74.15
-83.56 -6.519 -23.44
-3.988 -5.697 44.9
33.7 -2.211 -49.25
-108.1 -43.89 24.08
135.3 9.466 -11.46
-14.14 -0.7559 -113.8
63.86 -64.03 -113.9
27.69 -46.52 -1.339
37.98 -7.801 -72.16
-79.95 -10.7 5.192
43.12 32.17 23.75
-24.85 -51.55 -21.94
21.85 51.59 81.12
16.39 5.878 14.17
7.945 20.31 2.063
20.17 10.78 61.85
-0.8009 20.41 -19.16
-1.488 33.7 15.09
-18.31 -51.01 25.78
99. -17.92 -99.44
21.23 40.92 39.42
21.34 -5.021 -64.56
-7.371 43.24 -42.03
-69.11 -63.78 24.07
-37.36 -67.57 -15.87
9.246 15.19 35.02
20.94 3.359 37.39
-28.64 1.752 -33.37
-95.04 48.53 85.82
-27.59 18.92 -4.975
-34.29 54.46 -13.26
-42.26 22.46 22.44
-16.24 31.82 -26.68
30.68 20.91 35.74
-14.66 -29.46 -62.65
24.3 73.17 -19.27
0.7511 5.621 33.77
-78.75 -63.45 79.64
49.34 56.58 32.01
-13.04 -48.7 -71.22
59.15 4.083 132.6
-60.51 46.07 1.838
-8.874 -15.88 -39.3
-33.68 19.08 -11.57
25.87 41.61 19.92
11.97 -5.51 -26.35
-97.53 85.43 -22.22
29. -63.19 -75.3
32.84 97.09 -9.008
-39.11 74.1 -18.6
33.1 139.5 -44.63
-43.1 -35.11 50.36
-6.425 -54.52 -17.64
132.4 -0.5405 -32.73
60.16 48.36 40.21
-6.835 -26.64 -4.967
47.51 56.67 -57.17
47.96 10.08 23.32
-22.32 -61.53 119.8
86.37 48.98 -28.83
-51.2 9.461 113.3
29.18 99.53 116.2
38.32 23.85 58.21
74.41 -94.2 -21.35
2.751 45.08 -29.04
34.63 3.957 -17.6
44.03 -27.48 62.36
24.17 -10.79 -16.8
28.28 1.558 -32.17
25.68 -23.02 -56.23
-7.449 11.19 22.47
48.73 36.06 32.82
28.7 20.48 -17.67
41.29 2.719 71.82
30.58 87.06 22.09
-88.72 63.98 -32.01
2.233 -4.792 -29.17
14.48 -15.66 64.72
41.46 -15.49 -103.1
5.768 39.48 -15.77
-15.21 14.89 63.83
61.14 -18.44 -52.2
-12.08 -43.59 42.45
-26.41 -44.74 0.2883
2.273 27.14 54.48
-68.1 111.6 -24.77
-0.02227 17.13 58.12
8.693 2.954 85.33
-11.05 109.2 27.31
7.263 5.943 -31.55
31.92 -8.269 7.848
57.66 24.2 91.28
20.34 80.66 33.54
18.63 1.637 -28.91
49.61 10.65 -42.58
13.84 -69.22 34.93
-36.11 53.82 37.05
15.99 -12.35 6.334
-18.31 -15.3 56.86
-53.7 63.6 1.039
-24.07 -75.67 51.17
-20.6 128. 19.04
-25.17 -139.4 -21.94
-17.88 39.63 103.2
-51.72 -0.09485 14.3
65.14 -39.46 59.9
61.2 132.5 -11.74
15.32 -107.8 71.18
-17.46 33.32 25.34
89.91 -28.93 -19.26
15.64 57.4 -47.27
-10.11 -13.58 -9.314
30.76 47.35 -22.74
99.68 -0.5978 52.05
-51.68 41.43 -1.855
-83.61 -50.53 15.85
-14.68 41.03 46.62
-30.84 -44.79 92.52
-76.9 50.45 66.38
70.39 -28.34 -9.034
115.4 -11.11 -3.371
21.58 -23.72 5.136
-62.07 -13.2 -16.96
66.93 -102.7 -14.43
-96.68 24.45 16.08
35.21 11.43 7.033
-38.94 -51.08 -23.56
20.08 -54.19 29.81
-31.32 63.19 124.3
-75.43 14.43 51.32
84.92 127.4 29.97
-38.64 19.1 67.33
92.84 49.97 11.89
12.94 81.09 -81.76
44.65 -22.1 -46.38
114.5 65.2 5.985
57.4 -20.67 8.699
24.99 -130.1 39.98
-28.93 0.4336 4.786
62.42 -29.45 76.93
11.1 -53.13 -7.369
14.33 -27.91 19.14
71.82 100.7 -4.763
20.52 -36.98 4.766
37.69 -50.69 34.31
-33.39 -43.28 -33.61
-5.089 -76.88 -2.448
58.87 -11.62 -17.64
52.44 8.294 -14.14
-34.14 -32.58 15.78
75.09 -19.28 -23.12
-59.51 -18.64 4.249
16.8 -4.947 84.71
51.91 -131.5 8.558
55.97 12.08 83.35
-2.078 -29.33 3.954
88.38 -57.09 48.74
98.64 -25.66 -56.6
-10.69 -36.44 -35.93
65.88 -82.65 17.96
-65.79 -8.301 -81.79
99.42 18.71 -12.35
-32.53 -15.47 74.69
-34.71 -66.19 32.18
27.23 -47.02 -14.29
31.05 -40.18 -4.752
-76.09 16.42 92.71
85.64 62.04 119.4
45.33 -56.54 -121.5
26.77 -104.7 -66.76
20.97 5.037 -40.16
54.4 7.161 6.411
-65.1 -59.51 129.8
-65.81 -9.046 -32.53
37.23 -40.18 0.08421
-40.39 26.59 3.112
-16.39 -19.31 -54.99
5.636 52.15 38.52
-30.49 3.807 -61.55
38.27 -25.54 37.09
72.07 -78.57 120.5
2.2 -9.96 36.88
-66.45 -35.41 -72.38
55.54 25.02 -54.76
64.78 52.78 54.78
-41.03 -23.18 -26.47
-119.3 -32.85 84.01
50.36 -88.01 35.09
39.2 48.85 -15.39
23.5 -42.3 14.54
-11.55 5.226 -90.45
-67.46 -55.33 3.546
27.17 -85.32 95.78
-18. 34.19 -16.22
49.15 40.13 -32.55
-6.088 48.19 71.18
-6.692 25.44 29.68
10.3 -3.366 -36.72
58.23 44.93 20.83
5.875 -57.66 57.73
65.44 -58.02 20.76
94.44 -53.04 28.91
63.78 -17.25 29.9
-6.739 6.644 -26.93
46.45 22.24 -86.37
99.62 -66.12 -60.72
-24.14 -32.56 39.36
4.256 -3.141 38.86
-17.87 25.97 -0.8707
-39.09 98.33 105.7
65.96 -19.55 57.43
-79. -18.95 -94.67
-81.15 91.22 -77.26
32.42 -58.74 46.74
-117.4 25.65 -66.28
69.21 -28.44 -69.68
35.3 -27.22 -22.43
72.81 19.4 -34.3
-11.98 15.8 32.68
69.06 57.1 96.52
-69.16 79.16 -57.46
35.24 9.526 38.73
85.24 -94.07 -25.18
-54.04 -20.65 -26.88
-60.31 48.02 105.1
-3.89 42.34 -74.22
-26.07 18.05 84.31
-116.2 -89.8 -40.09
-6.85 77.9 20.86
-30.07 11.13 -45.67
30.73 -38.25 -63.88
-35.25 -40.87 -26.33
11.54 15.79 39.53
85.36 28.55 -64.34
-68.46 5.275 -17.75
-82.28 27.63 -96.25
27.17 -44.67 -11.65
-41.44 0.7544 -14.32
52.73 52.82 90.49
-23.82 -89.13 15.85
7.874 30.52 -49.16
[...]
POINT_DATA 23058
SCALARS radius float
LOOKUP_TABLE default
6.264
4.573
4.753
6.017
4.734
5.434
5.522
5.69
6.023
5.672
6.002
4.59
6.089
5.391
6.593
7.25
6.009
5.509
7.67
5.194
6.736
7.183
5.577
4.647
4.731
4.815
6.13
7.128
6.203
4.81
5.699
6.109
7.318
7.574
6.725
5.466
6.695
6.095
5.665
6.071
6.17
7.821
4.33
5.902
6.371
3.043
3.594
4.865
6.192
5.502
7.518
6.298
5.306
7.504
7.609
6.296
6.139
5.965
5.92
5.489
6.824
6.653
6.204
5.357
5.697
6.274
6.44
6.058
5.76
6.335
6.867
6.493
5.996
6.621
6.099
5.729
7.298
5.295
5.938
6.63
5.61
6.487
5.987
5.943
7.324
6.233
6.501
5.552
5.302
6.422
4.486
6.856
5.794
6.754
6.062
6.662
5.746
6.088
6.326
6.116
6.409
6.547
6.045
7.009
5.912
5.694
6.655
7.174
6.305
5.933
5.554
6.038
4.471
5.817
6.111
7.549
4.439
5.434
6.335
6.073
3.952
7.162
4.424
5.493
6.232
7.002
6.65
5.624
5.923
6.015
5.421
5.438
6.1
7.452
5.998
4.664
6.809
3.9
5.826
6.307
5.768
5.976
4.186
5.007
5.879
6.696
6.716
5.256
6.316
5.269
6.228
7.063
6.515
6.515
5.778
5.969
5.899
6.079
6.198
4.743
3.709
6.323
7.828
5.999
5.453
5.625
6.143
7.573
6.537
5.81
7.371
5.942
6.769
5.737
4.906
5.734
5.28
4.2
7.561
7.545
6.352
7.08
6.473
6.638
5.428
5.727
6.648
6.586
5.837
5.359
6.313
5.867
5.536
5.959
5.162
5.826
6.037
5.115
6.85
6.177
6.79
5.954
5.152
7.738
6.576
5.333
6.798
5.537
6.511
6.182
6.999
5.381
3.783
7.303
5.973
5.92
6.631
6.308
6.072
5.638
5.866
6.315
7.509
5.752
5.597
6.167
6.329
6.049
6.351
6.745
6.493
6.706
6.325
7.133
7.121
6.322
6.814
6.108
5.638
6.511
6.021
5.204
6.158
6.917
5.766
7.855
7.322
6.278
5.383
6.387
6.364
6.539
6.414
6.318
7.594
6.49
5.74
5.91
7.595
7.389
6.351
6.457
6.02
5.797
6.183
5.361
5.386
5.768
6.514
5.977
6.514
5.919
6.254
6.221
6.164
4.499
5.94
6.085
5.949
7.047
7.322
7.146
7.842
5.769
6.131
5.613
6.226
3.424
6.257
5.984
5.943
6.092
5.997
5.942
6.488
7.207
5.542
5.774
5.845
6.511
6.616
5.896
5.954
4.565
7.468
5.861
6.371
6.071
5.858
5.904
6.652
5.765
5.779
7.293
6.358
6.958
7.723
5.754
5.744
6.228
5.511
5.953
7.453
6.412
4.681
5.639
6.564
6.277
6.116
7.365
4.54
6.012
6.232
5.977
6.715
6.594
7.037
7.594
4.633
7.054
3.185
5.76
6.475
5.877
5.485
5.456
5.64
6.058
5.857
6.402
5.006
5.83
5.537
4.999
6.843
3.996
3.271
6.133
5.569
5.675
6.018
7.231
5.518
6.642
6.448
6.125
5.907
5.81
6.384
5.944
5.6
3.615
6.329
5.554
4.434
6.654
5.771
6.915
7.849
5.824
6.345
5.533
7.751
7.495
3.999
6.237
6.463
5.913
6.348
6.527
6.094
6.996
6.051
6.86
6.998
4.583
7.002
5.549
6.456
6.648
6.887
6.056
6.116
5.65
7.479
6.436
7.8
4.866
6.816
5.879
6.259
7.367
5.483
7.754
6.043
6.83
4.011
5.923
6.802
5.574
6.192
4.081
4.433
6.182
6.1
5.922
5.547
6.342
6.006
6.852
5.253
5.818
6.271
6.604
5.859
6.006
5.48
6.983
6.34
5.984
6.305
3.22
6.872
7.471
7.815
7.33
3.362
6.153
7.641
6.312
5.9
6.245
6.068
3.972
5.596
5.884
7.819
6.072
5.886
6.353
6.692
6.258
7.686
6.54
6.285
6.223
6.458
6.182
7.459
6.331
6.152
6.194
5.803
6.185
4.368
4.533
5.037
7.089
4.611
5.56
6.763
7.434
6.187
5.72
4.316
6.937
6.75
7.374
7.623
6.341
7.622
5.824
5.531
6.397
5.835
7.323
6.859
4.048
7.392
6.319
7.333
6.528
6.232
7.7
5.962
5.474
6.449
4.844
6.217
6.176
6.156
6.69
6.087
3.435
6.751
6.976
6.096
6.837
6.111
5.069
6.003
5.884
5.84
6.08
6.07
5.933
6.035
6.018
5.393
5.683
6.951
7.448
6.414
6.532
6.044
6.373
6.987
6.099
5.995
5.957
7.009
6.848
5.64
6.105
6.337
5.942
6.275
6.792
6.486
5.611
7.514
6.144
7.592
7.39
5.879
6.04
7.738
6.579
6.243
5.841
7.005
6.105
7.177
5.742
6.468
7.419
6.
3.936
6.123
6.801
6.279
6.952
6.077
5.922
5.99
7.472
4.646
7.423
6.221
5.72
6.028
6.638
6.929
5.716
6.689
6.602
7.245
6.948
3.407
7.58
4.737
7.609
4.368
6.408
7.245
5.999
5.588
6.203
6.607
6.27
5.877
5.872
6.071
3.259
6.272
4.298
6.321
5.989
6.881
6.638
7.317
6.31
6.334
5.926
6.7
4.988
6.783
6.231
5.496
6.29
6.556
5.703
6.809
5.914
7.31
5.956
6.333
6.876
6.102
6.55
6.161
6.247
5.692
5.761
6.114
5.693
5.696
6.793
4.513
7.092
6.313
5.614
6.066
7.181
6.197
6.157
6.557
6.178
7.819
6.097
6.891
5.876
6.431
6.175
6.62
7.616
6.619
6.538
6.339
6.998
5.536
5.788
6.766
6.227
7.728
7.513
6.063
7.216
6.074
4.135
6.368
3.827
6.331
5.935
6.87
4.339
6.186
6.385
6.865
6.705
7.871
6.42
5.793
6.043
6.017
6.557
6.283
5.938
6.045
5.101
5.865
6.106
6.245
6.44
6.827
5.836
6.03
6.678
7.216
6.018
6.88
6.031
5.978
6.291
6.077
5.108
5.946
7.618
5.856
3.883
6.229
6.078
7.823
5.828
7.256
6.204
5.995
6.501
6.828
7.548
6.058
6.147
6.764
6.052
5.984
7.825
6.255
5.807
5.719
5.737
7.517
6.765
6.094
5.567
6.264
5.978
6.307
6.139
5.866
7.283
6.786
6.844
6.124
6.108
6.035
6.556
7.113
5.869
6.175
6.217
5.501
4.598
5.748
6.743
6.123
7.583
7.069
6.323
6.226
5.797
5.402
6.118
5.898
6.416
5.94
7.429
7.565
6.42
5.932
6.29
5.149
5.798
5.923
6.552
5.973
5.307
5.508
4.725
6.264
6.853
7.836
6.111
6.322
7.153
5.881
6.154
5.815
5.497
6.312
6.345
5.334
5.99
4.784
3.346
6.877
6.957
5.985
6.203
6.456
5.56
6.209
7.46
6.666
6.453
6.285
5.836
6.255
6.202
6.885
7.664
7.832
6.479
7.69
6.18
3.861
6.794
6.084
6.864
6.281
6.555
6.111
3.258
7.038
6.149
5.813
6.362
5.731
7.575
7.542
7.557
7.45
7.435
5.871
6.094
6.669
6.017
5.88
6.686
6.736
5.032
7.383
6.09
3.375
5.888
6.533
6.533
4.679
6.667
6.272
6.224
6.499
7.559
7.564
5.843
3.443
7.697
6.506
6.705
6.229
6.741
6.172
5.949
7.302
7.533
6.921
6.617
4.761
7.399
6.311
6.097
6.72
6.139
6.368
5.764
6.24
5.739
6.473
3.818
7.389
6.182
5.805
6.152
5.87
6.415
6.824
6.342
5.983
6.349
6.425
6.05
5.954
7.439
6.294
5.932
4.303
7.331
7.388
7.566
5.991
3.735
6.075
6.879
6.162
5.509
5.263
5.854
5.087
5.008
4.479
6.039
6.431
7.225
6.944
7.759
5.945
6.598
6.549
6.686
7.801
5.213
6.951
6.187
6.011
7.014
6.242
6.698
6.642
5.91
6.802
6.611
6.254
6.832
4.38
5.922
6.779
6.902
6.041
6.253
6.196
6.538
6.579
5.913
5.846
4.24
6.048
6.094
6.149
6.172
3.495
7.269
6.579
4.631
6.511
5.778
7.632
6.417
6.548
6.358
3.721
7.577
6.266
6.362
6.241
6.671
5.467
6.229
6.753
7.131
6.412
6.225
5.308
5.636
6.05
3.943
6.643
6.255
6.167
6.202
5.681
7.755
6.645
6.054
6.042
7.448
5.838
5.366
6.361
6.426
6.34
6.477
5.776
4.946
5.989
6.06
3.918
6.235
5.912
6.269
5.934
4.308
5.936
4.228
6.289
7.533
6.638
6.324
6.215
6.679
5.998
5.712
7.106
6.887
7.772
4.039
6.169
6.894
5.48
6.962
6.434
3.431
6.346
3.178
7.136
5.916
5.404
6.047
6.255
6.28
5.683
6.451
7.314
6.04
7.444
5.778
6.356
5.814
6.152
6.394
7.543
6.302
7.544
7.354
6.395
5.996
5.838
3.552
7.854
6.89
3.333
6.397
6.241
5.363
4.47
6.585
6.464
7.322
6.046
6.472
6.22
5.331
6.41
6.051
6.587
5.822
6.541
5.923
5.96
6.05
5.189
3.588
6.667
6.042
6.189
5.293
6.509
3.252
5.314
6.962
6.344
6.009
6.272
4.08
4.822
5.878
7.001
7.297
6.491
5.249
6.7
5.779
6.744
5.795
6.576
6.122
6.305
5.399
6.925
5.942
6.486
6.36
3.595
6.053
6.63
5.939
7.524
6.563
6.128
7.591
7.599
5.836
6.504
6.266
6.813
7.597
6.323
6.858
6.179
6.445
6.749
5.832
6.16
5.813
6.296
5.56
6.423
6.154
6.421
6.379
6.386
5.916
6.774
5.844
6.055
6.194
6.211
6.58
6.398
6.28
6.816
5.08
6.15
4.142
7.511
7.372
5.897
7.295
6.769
6.621
6.174
6.637
6.5
6.332
6.371
5.938
6.699
6.557
5.662
5.981
3.028
5.016
6.29
4.319
6.972
6.36
5.815
6.706
6.178
5.916
6.399
6.528
6.078
7.541
5.918
6.506
5.938
6.301
7.844
3.232
5.981
4.338
6.127
6.11
7.361
6.565
6.416
5.856
3.848
6.807
6.31
6.028
6.777
7.592
6.416
7.825
5.349
6.696
6.419
6.112
6.516
7.414
3.551
4.428
6.149
6.36
6.189
4.792
5.949
6.59
5.632
6.301
6.211
3.855
5.725
5.356
6.321
6.459
3.257
6.125
6.043
6.496
6.747
6.467
6.459
6.225
5.636
7.589
6.887
5.751
6.914
7.089
6.806
4.753
7.227
6.726
6.156
7.028
7.755
6.451
7.299
4.911
6.934
6.968
6.518
6.428
6.343
6.26
3.843
6.615
5.964
5.334
5.909
6.017
6.466
7.171
5.443
6.848
6.559
3.787
7.337
7.048
6.458
3.493
6.403
6.894
6.552
3.456
6.099
6.438
3.823
6.501
6.643
5.369
7.15
5.714
6.547
6.556
5.193
6.118
5.92
4.217
6.768
4.742
6.107
6.889
6.195
4.582
6.066
6.072
6.288
6.567
5.087
7.594
6.528
6.258
6.094
5.625
6.461
6.243
6.03
6.304
7.512
6.362
4.621
5.806
6.197
6.59
6.304
6.198
7.701
6.575
7.718
6.435
7.709
6.524
6.158
4.012
6.321
4.625
6.246
5.118
7.13
6.661
6.001
6.678
6.276
4.272
6.681
6.396
6.348
6.947
7.069
6.966
5.056
7.156
5.706
7.675
6.75
7.434
6.396
6.517
6.419
6.352
3.505
6.419
6.373
6.946
6.66
6.552
6.826
6.105
5.705
7.15
5.981
6.493
6.964
6.803
6.93
7.223
5.185
4.391
6.8
7.067
7.85
6.22
6.439
5.437
6.805
6.572
6.49
4.552
6.781
7.281
6.359
6.681
6.164
6.488
6.228
6.971
5.829
6.676
6.066
6.087
7.506
6.886
5.929
6.679
5.954
6.493
5.703
6.896
6.362
6.519
5.443
6.701
5.416
7.278
6.548
5.961
5.049
6.057
7.695
5.81
5.921
7.097
5.269
6.607
6.235
6.635
7.302
6.996
4.053
6.021
6.524
6.281
6.691
6.324
5.913
6.938
3.399
5.692
5.894
5.929
6.206
6.872
6.985
6.002
7.781
5.971
6.324
6.016
7.637
6.126
6.062
6.201
6.482
6.221
6.154
6.752
5.942
5.722
6.106
6.705
5.942
7.806
5.966
7.158
6.193
7.466
6.183
6.413
6.219
6.234
6.114
3.462
6.371
6.8
6.279
7.856
6.64
4.016
7.223
6.22
6.833
6.024
6.327
6.105
6.26
6.714
6.766
6.692
6.083
4.547
7.3
6.499
7.086
6.345
7.42
4.927
6.162
6.505
5.541
7.232
7.622
5.793
6.009
6.918
7.209
6.439
6.426
5.891
6.137
6.08
5.401
4.424
7.751
6.41
6.964
7.508
6.509
7.126
6.483
7.788
6.328
5.986
6.919
7.281
6.588
6.35
6.499
5.956
7.589
6.231
6.484
6.723
6.481
6.465
6.756
7.224
6.98
7.791
7.298
6.315
6.299
7.569
7.048
6.585
6.741
7.26
6.201
6.164
6.296
6.717
6.445
6.914
6.18
4.45
6.962
5.736
6.375
6.098
7.06
7.345
5.126
6.758
6.459
5.744
6.861
5.381
6.721
7.812
6.113
5.417
7.609
7.011
6.162
6.346
6.374
3.939
7.73
7.322
6.485
3.993
6.01
7.623
6.873
6.41
5.57
3.36
7.533
6.128
6.536
6.014
5.048
5.054
6.358
6.148
6.829
7.491
7.108
4.843
6.329
6.578
7.606
6.126
6.619
6.605
6.459
6.577
6.902
6.199
5.746
6.442
6.146
5.977
5.844
6.772
6.423
6.059
6.446
7.432
6.322
6.974
7.599
6.749
3.727
4.269
6.49
6.
4.354
6.307
7.611
6.297
6.003
6.636
6.825
6.966
6.875
6.108
5.975
6.266
5.905
6.436
6.241
6.074
6.706
6.187
7.26
7.592
6.154
7.022
3.723
6.156
7.637
7.131
6.549
7.508
6.179
6.529
4.222
6.784
6.08
6.094
6.682
6.337
6.835
6.318
6.332
4.074
6.491
6.08
6.753
7.765
6.852
6.291
6.389
6.374
6.947
6.89
7.487
6.423
7.118
6.092
6.643
6.722
6.84
6.582
5.81
6.687
6.394
7.161
5.666
6.45
6.247
4.947
6.088
5.293
6.01
5.178
3.23
6.226
6.313
7.2
6.635
3.501
6.354
4.735
5.648
6.701
4.491
6.567
7.635
5.589
6.286
5.808
6.089
7.628
4.902
5.548
6.887
5.095
6.201
6.455
6.291
5.47
3.18
4.83
6.461
5.766
6.205
3.927
6.067
3.911
3.347
6.597
7.71
3.523
4.805
5.912
7.614
4.576
7.58
5.217
6.117
5.821
5.541
6.823
4.328
3.635
4.72
6.587
4.113
7.617
6.149
6.097
7.517
6.398
4.943
6.377
6.634
5.169
6.673
7.557
6.656
5.929
6.977
6.149
5.625
5.697
3.694
6.151
6.79
7.055
5.992
5.758
6.094
7.591
5.944
7.151
6.723
7.274
6.201
6.515
6.449
7.341
6.222
5.155
5.945
7.558
5.813
5.913
6.088
3.725
6.287
6.026
6.833
6.73
5.594
6.894
7.612
6.155
6.296
6.894
6.522
6.174
6.611
7.776
4.141
5.426
6.574
6.134
6.026
6.036
6.786
6.133
6.323
6.839
5.655
6.717
6.555
7.062
5.657
6.743
6.816
5.878
6.126
6.351
7.074
4.801
6.101
7.556
6.851
6.732
5.396
5.658
7.443
4.867
6.56
4.832
6.213
5.435
6.633
6.348
6.223
6.558
6.236
6.1
6.738
7.584
4.921
5.809
6.219
6.906
6.087
6.214
6.315
6.801
6.356
6.938
6.018
6.237
6.111
7.406
6.522
6.206
6.326
7.031
7.578
7.022
3.756
6.672
3.436
6.69
6.281
3.825
4.246
6.944
6.25
4.998
7.68
7.107
7.495
7.605
6.676
6.216
6.116
7.401
5.14
3.326
6.463
7.42
7.519
6.591
6.021
6.126
4.253
7.247
6.567
6.773
6.742
5.771
6.095
6.267
6.036
7.598
6.561
5.928
7.335
4.172
6.631
6.25
6.163
6.211
7.04
6.723
4.777
5.396
7.544
4.195
7.62
6.481
7.023
6.34
6.075
7.597
7.274
6.344
6.737
6.838
5.857
4.78
6.991
5.903
6.461
6.25
6.188
5.795
7.366
6.255
4.116
6.158
7.125
4.62
5.516
6.743
6.555
5.883
3.237
6.231
6.265
5.12
7.486
3.873
3.795
6.072
7.307
5.691
6.041
6.007
6.085
3.582
5.504
5.976
7.096
5.438
7.396
5.635
5.56
5.466
6.197
5.586
5.886
6.088
5.854
6.06
7.689
5.701
3.887
6.756
6.341
6.25
6.731
7.019
6.508
7.553
6.084
5.96
7.78
5.821
6.272
7.484
6.081
6.834
5.915
5.152
6.549
6.372
6.339
5.674
6.096
6.571
4.218
6.111
3.797
7.137
6.287
7.511
7.601
5.985
6.455
6.674
6.462
6.442
6.647
3.75
3.605
7.054
7.55
6.376
5.607
4.162
7.008
6.517
7.847
6.166
7.568
6.11
5.369
5.892
4.199
6.028
7.059
6.242
5.15
6.003
6.269
6.779
7.165
6.624
5.562
5.36
6.497
7.167
6.182
6.383
4.645
6.75
6.337
6.81
6.222
6.559
6.395
6.215
7.003
6.865
6.535
3.301
5.905
6.969
7.458
6.278
6.428
6.337
3.481
3.455
5.463
7.172
3.352
7.001
3.171
5.527
6.104
6.25
6.259
6.568
6.31
6.576
6.217
6.313
6.586
5.094
6.65
7.075
5.926
6.389
7.547
6.932
5.541
4.979
6.933
6.303
4.698
5.64
6.985
6.134
7.536
6.954
5.943
5.803
7.569
7.077
7.536
5.437
6.331
5.651
6.568
5.422
3.948
6.01
6.153
6.392
6.025
6.439
6.289
5.645
6.206
7.651
6.287
3.636
5.343
7.083
4.982
4.906
6.541
7.049
6.385
7.825
6.011
5.835
7.039
6.042
6.501
4.847
4.087
5.723
7.064
7.352
6.011
4.722
6.422
5.801
6.516
7.048
6.789
7.353
3.527
6.675
5.944
6.547
6.022
6.172
6.851
6.158
3.46
7.059
3.776
6.495
5.876
6.245
6.696
5.489
5.281
6.002
6.644
5.783
6.189
4.913
7.377
5.904
6.759
5.997
6.552
6.673
7.834
4.014
5.163
6.164
5.025
6.581
5.837
7.817
5.152
5.394
6.482
7.067
6.813
6.041
5.894
5.775
7.134
5.733
7.326
7.553
5.449
6.273
6.253
6.349
6.132
6.126
6.226
6.436
5.868
6.544
6.18
6.555
5.641
6.385
6.032
6.187
6.92
4.385
6.508
5.538
4.005
5.839
6.751
6.219
7.125
6.194
6.685
6.481
4.797
4.441
6.279
7.018
6.161
4.255
6.451
7.828
6.737
5.542
6.665
6.786
6.092
6.589
6.147
5.543
5.805
6.503
6.744
4.973
5.616
6.635
5.694
5.244
4.234
5.179
6.229
6.265
5.004
7.088
5.585
7.609
7.399
6.443
6.426
6.192
5.955
7.764
4.554
6.106
5.957
6.262
7.428
6.77
6.195
6.3
6.259
7.211
3.956
6.822
6.809
7.574
4.847
7.143
6.514
6.585
5.931
5.958
6.097
6.575
6.81
6.885
5.133
7.001
7.016
5.778
6.949
5.466
6.939
7.21
6.173
6.095
6.323
7.135
5.797
6.703
5.021
4.419
7.433
3.601
6.514
6.408
6.796
6.795
5.643
5.587
4.757
6.757
6.284
6.613
6.279
6.102
5.921
6.421
5.111
7.848
3.402
5.997
5.917
6.321
6.742
5.962
6.186
4.647
6.075
3.483
6.347
6.698
6.253
4.77
6.255
4.392
4.133
5.841
7.46
5.719
3.452
5.949
6.704
7.255
6.147
7.76
6.248
5.756
7.054
6.62
6.477
5.598
6.462
4.65
6.111
6.637
7.25
6.52
7.721
5.727
6.11
6.061
6.783
7.651
6.331
6.548
6.834
7.059
6.417
5.483
4.074
6.266
7.085
6.125
6.768
6.834
3.944
4.093
6.302
6.717
6.17
6.381
6.561
5.851
5.043
7.044
6.685
6.66
6.468
6.321
6.495
6.883
5.637
6.243
6.261
5.757
6.136
6.154
4.078
6.018
6.278
6.541
6.316
7.069
4.996
6.665
6.831
6.108
7.858
7.649
6.057
6.22
6.139
6.692
6.458
6.01
6.41
5.561
7.502
7.772
5.371
6.43
6.482
6.182
6.123
6.621
7.163
6.24
6.287
4.193
5.83
7.093
6.592
5.831
6.679
7.673
7.6
6.26
7.038
6.708
6.489
6.09
6.484
6.744
6.368
6.333
5.693
3.621
6.512
6.23
5.147
6.801
7.807
7.766
6.917
7.761
6.318
7.573
3.534
7.256
6.531
6.494
6.255
3.477
6.411
6.373
5.419
7.478
3.592
6.376
6.581
6.492
6.559
7.044
6.134
6.966
6.491
5.555
6.92
6.303
7.497
6.058
5.944
6.341
6.538
6.76
4.457
4.189
6.807
6.34
4.363
5.743
3.062
7.697
7.395
6.629
5.353
4.214
5.995
6.411
7.803
6.103
7.115
7.143
4.234
6.727
3.925
6.709
5.338
6.426
6.292
3.979
5.766
7.783
5.182
7.247
7.746
7.094
6.982
6.677
5.806
6.815
4.136
6.681
7.587
7.045
6.674
6.641
5.781
4.654
6.364
5.202
6.102
4.919
7.009
6.366
4.382
5.919
6.292
6.23
6.677
6.965
5.484
6.22
6.016
6.413
6.322
6.375
3.831
5.131
6.198
6.426
7.234
6.229
6.159
6.542
7.297
6.77
7.282
6.128
7.282
6.672
6.522
7.677
6.765
4.002
6.517
6.234
7.087
7.773
7.695
4.839
6.53
6.831
6.674
6.252
5.262
6.872
6.577
6.279
7.631
6.293
5.659
7.628
4.897
6.108
6.03
5.967
6.237
5.78
3.861
6.558
6.156
6.369
6.741
6.741
5.159
5.95
7.449
6.635
4.744
5.864
6.53
7.217
7.437
6.091
3.839
6.023
6.849
6.639
7.665
6.202
6.527
6.946
6.62
7.217
6.107
6.716
6.573
7.174
7.634
5.934
7.81
6.021
6.333
6.619
6.475
5.475
6.089
6.297
7.665
5.523
6.32
4.688
6.155
6.515
6.932
6.193
7.136
6.165
5.168
6.587
6.709
3.705
5.998
7.555
7.672
5.338
7.696
6.613
6.715
7.266
5.877
6.832
6.748
6.843
7.008
6.087
7.047
5.436
7.032
7.254
6.34
4.9
6.016
7.35
6.643
6.437
6.88
5.812
6.449
6.368
6.625
6.984
7.126
3.153
7.479
6.348
3.305
6.943
6.763
7.643
4.961
6.262
6.773
6.389
7.724
6.59
6.574
7.072
5.346
6.18
4.729
7.779
4.283
7.424
4.16
4.731
6.285
7.661
6.324
7.806
7.751
4.962
6.395
6.342
7.669
7.112
7.191
6.293
6.779
3.744
7.095
7.752
6.718
4.098
7.658
6.872
6.449
7.243
7.245
4.781
5.902
6.627
7.121
6.063
6.802
7.644
7.745
6.447
5.751
6.522
6.728
7.81
6.285
6.384
6.733
7.668
6.91
5.028
4.207
6.536
6.617
7.294
6.683
6.626
4.042
6.14
6.417
7.274
7.208
6.301
4.819
7.75
6.346
6.596
5.725
7.838
6.479
6.893
6.449
7.564
6.792
3.189
6.33
7.366
6.171
7.509
4.699
5.653
5.118
6.442
5.253
5.821
5.036
7.009
6.756
6.757
7.401
7.815
5.925
7.191
6.305
7.259
6.473
6.791
7.227
7.419
5.951
3.812
4.56
6.869
6.856
6.087
6.892
6.919
4.082
6.546
6.704
6.871
6.633
6.311
3.77
6.538
5.602
5.888
5.285
5.529
6.587
6.401
6.387
7.362
6.868
5.977
7.602
7.25
6.813
5.974
6.466
6.882
6.111
6.39
4.63
7.448
6.634
6.502
6.473
4.314
6.902
6.956
6.764
6.633
6.637
6.146
5.968
6.335
6.506
3.951
6.651
7.558
7.777
3.467
6.493
4.939
6.113
6.944
7.756
6.75
6.33
6.745
7.536
6.177
6.2
7.386
6.289
7.019
6.438
6.331
5.906
6.424
6.126
7.444
6.727
6.116
5.906
5.573
6.142
6.425
6.661
6.518
6.413
6.732
4.19
5.777
6.356
7.593
6.755
5.534
5.932
6.899
6.358
6.639
5.897
3.473
6.149
3.273
6.545
6.119
6.836
4.225
5.26
5.866
6.208
6.591
7.641
5.816
6.751
4.901
5.704
6.815
7.118
4.855
5.366
6.068
6.342
6.905
4.647
5.779
4.563
5.843
6.447
6.157
6.687
5.838
6.281
3.813
6.883
5.857
5.622
7.501
7.692
5.901
6.455
5.393
6.587
6.814
6.048
6.506
3.154
4.154
4.691
6.707
6.995
6.66
6.29
7.358
6.774
6.204
6.838
5.945
6.312
7.573
6.021
7.587
5.365
7.746
6.013
6.396
5.588
7.647
7.293
5.674
4.66
6.071
6.149
6.108
5.939
7.267
5.996
7.56
7.779
6.692
6.984
6.597
7.099
6.65
6.633
5.682
6.17
5.097
5.908
6.341
7.787
5.173
6.46
7.271
5.989
7.572
4.024
7.547
6.518
6.639
6.656
5.593
6.356
6.237
7.708
6.76
6.843
6.96
5.979
7.782
4.009
7.601
5.774
6.731
5.67
7.614
4.919
6.194
6.773
6.565
6.887
6.618
6.468
6.174
6.606
5.248
5.561
6.421
6.649
5.421
7.678
7.567
6.26
4.547
6.415
7.684
6.236
7.178
5.35
5.845
6.4
6.043
5.965
6.966
7.087
5.835
5.917
6.04
7.59
6.291
6.768
6.74
6.145
7.579
7.656
6.352
6.858
6.361
5.801
6.705
6.025
6.539
6.263
7.603
4.733
6.51
4.599
7.348
6.657
6.132
6.448
6.929
7.056
6.518
3.489
4.697
6.949
6.203
6.378
5.919
5.459
7.385
4.916
6.253
5.498
6.978
6.099
7.359
5.594
6.003
7.402
4.888
5.07
3.245
5.632
6.857
5.303
6.786
6.167
6.262
6.932
7.139
6.823
6.369
5.628
6.464
4.739
6.758
6.183
6.412
6.619
5.634
6.39
7.045
5.487
3.369
6.818
7.847
6.458
7.423
5.53
6.506
7.321
6.81
6.362
7.717
7.065
4.278
6.56
5.825
6.081
7.616
7.288
7.546
5.944
6.2
4.933
6.201
7.056
7.562
5.741
6.262
6.802
4.688
7.575
4.999
4.022
7.561
6.783
6.417
6.121
3.677
6.48
5.86
6.58
5.711
5.147
6.325
7.763
4.439
6.594
3.983
7.265
4.039
6.496
6.698
6.547
6.476
6.318
7.625
6.583
5.705
5.162
7.631
4.144
6.45
7.257
5.17
6.445
6.414
5.127
4.349
3.827
5.634
5.802
7.66
7.295
3.601
3.408
6.718
7.256
6.61
7.412
6.82
5.093
6.401
5.033
6.15
7.427
5.457
7.598
7.702
4.598
7.633
6.272
7.578
6.447
6.74
3.886
5.892
4.305
7.169
7.659
6.115
5.549
7.376
3.556
6.121
5.743
6.788
6.538
5.85
4.816
5.63
3.905
6.636
6.485
4.354
6.717
6.504
5.858
5.874
7.592
5.105
6.304
5.906
6.141
4.842
5.331
6.306
7.644
6.831
4.787
7.099
7.716
4.485
7.638
7.553
5.868
6.658
7.489
5.806
7.305
6.703
6.763
6.5
3.734
6.186
5.891
6.719
6.792
6.437
6.587
6.794
6.284
6.694
4.24
6.299
7.255
3.704
7.526
6.493
6.841
6.683
5.621
7.289
7.024
7.026
7.065
6.603
6.429
7.57
5.303
5.93
6.078
6.931
5.961
5.855
6.047
6.603
6.632
5.101
6.605
6.379
6.66
7.582
7.054
6.707
6.871
5.487
3.869
6.15
3.778
5.506
6.97
6.663
6.401
6.839
7.416
7.453
6.545
4.944
7.312
4.309
4.739
6.139
6.221
6.848
6.51
6.085
7.54
7.6
5.083
7.2
6.033
6.207
7.59
6.343
3.892
6.02
6.197
4.908
7.602
7.364
5.735
5.649
7.16
7.029
5.925
4.666
5.056
7.543
6.028
6.443
4.212
5.644
5.649
6.951
6.43
5.767
7.194
7.014
6.517
5.592
5.981
6.438
7.118
6.223
7.61
6.195
6.331
6.072
6.582
6.725
7.22
6.804
7.779
6.441
5.995
7.348
6.339
4.284
6.481
5.965
5.569
5.931
7.533
7.474
4.502
6.763
6.525
7.01
4.578
6.363
6.717
4.392
5.835
3.921
5.98
6.647
6.626
5.754
6.456
7.13
7.583
5.804
4.173
7.556
7.599
3.745
6.495
6.934
7.836
4.803
7.21
6.226
6.987
5.412
4.348
6.324
5.772
5.838
6.622
6.392
6.559
6.705
7.427
6.461
6.845
6.158
5.921
4.896
6.939
6.274