# vtk DataFile Version 3.0
3D scalar data
ASCII
DATASET POLYDATA
POINTS 7846 float
-79.01 32.25 9.381
16.12 -34.11 32.77
47.16 0.2884 77.68
4.21 -44.5 35.45
11.32 63. -25.6
17.81 -22.87 -48.21
5.268 24.47 -8.909
-59.09 3.297 -12.95
47.21 -27.52 -31.94
8.799 6.504 30.36
20.14 2.343 -35.92
-6.553 21.91 -12.83
45.75 31.67 5.029
14.05 73.47 57.5
-68.52 10.5 3.121
-40.3 -64.43 71.87
82.41 -8.686 2.511
67.99 -41.22 6.515
-77.89 -28.97 -66.14
-10.32 -49.43 33.06
30.14 32.33 84.55
67.64 57.91 -61.75
11.88 52.84 -12.83
-6.887 42.57 -22.57
-24.58 -8.542 19.51
-46.38 -34.65 -31.16
24.3 79.63 62.29
-26.43 -100.5 7.705
-24.35 33.2 52.93
17.21 4.446 49.68
-35.57 -85.82 -19.17
60.83 -22.66 -12.65
89.63 73.58 -4.316
29.26 -32.5 101.2
69.26 -48.86 30.17
-3.68 38.66 -34.55
-56.19 -49.02 -40.64
7.161 49.48 -88.89
-14.73 7.71 22.43
-4.448 62.47 -31.84
7.595 6.968 43.26
85.8 16.44 69.96
33.14 -21.98 73.39
-40.69 -26.88 -23.79
-25.84 -24.85 -46.
47.72 6.737 25.47
90.61 15.17 -3.126
58.73 28.49 14.4
-50.76 -5.217 43.23
-52.62 61.48 50.75
-15.11 88.34 -63.25
51.79 -7.155 -44.11
-8.282 -24.39 -14.21
101.4 -9.647 -54.1
90.91 52.08 58.94
-32.13 31.23 18.07
-2.804 47.56 57.9
-17.11 -55.25 -20.91
-45.22 -17.1 21.76
35.77 -12.61 -10.88
59.75 68.45 -18.95
87.69 40.77 51.75
37.77 -76.54 19.26
56.9 -29.29 37.83
3.496 -67.18 -27.75
47.3 -57.24 13.16
-48.85 35.34 -36.32
-0.5988 31.3 7.16
54.73 -13.74 -17.62
-32.29 -46.21 13.79
-6.33 35.82 97.7
31.54 14.45 -103.8
62.98 -14.55 68.31
-48.4 6.067 -51.31
-16.12 18.01 -50.7
-6.418 -56.52 44.24
-62.79 -71.74 2.267
-29.33 56.35 -19.83
9.78 -14.22 25.5
-60.75 -46.06 -5.095
-42.92 15.56 10.5
77.03 77.13 11.52
-8.046 33.06 -27.32
-8.78 -28.38 16.19
8.971 103.7 56.66
90.22 25.17 72.47
38.32 66.91 -31.6
15.02 -2.63 -55.9
53.11 -6.826 -53.87
-39.46 86.71 27.63
6.983 -38.4 77.3
-79.53 42.26 6.535
21.35 -40.36 -76.36
-56.07 60.94 14.79
9.201 -26.63 29.36
89.78 10.19 38.77
3.583 -5.194 0.4776
-0.1888 -23.36 -22.08
28.72 63.26 -23.09
-79.59 21.25 -15.52
-11.97 -80.02 -54.66
42.32 37.55 -47.47
-31.94 7.606 84.38
-46.57 -42.81 81.02
-23.56 25.12 24.19
32.13 -56.67 -66.63
-4.33 -61.65 77.04
-80.95 63.38 34.86
5.493 -73.39 18.75
33.96 18.76 3.361
25.91 61.67 36.31
102.1 -25.76 -9.963
-75.46 22.85 43.68
75.57 -27.73 57.86
71.55 -5.805 -18.37
2.008 -105.1 2.674
19.67 -71.81 28.73
30.77 -21.51 26.58
48.81 -91.57 -15.81
38.78 -3.565 65.25
-24.18 -11.15 3.786
42.81 -74.12 -54.14
-36.99 -33.05 -13.82
-7.175 -1.998 30.75
10.56 -27.39 -39.84
-103.7 0.2719 32.48
35.39 -68.92 -27.01
8.14 17.53 -77.14
41.07 -44.14 6.453
-61.88 -29.58 -56.84
48.39 -34.16 71.38
99.92 -8.9 34.01
-12.68 43.92 0.3266
112.8 23.29 -26.63
28.57 9.189 -15.08
-70.71 41.14 -20.89
-83.06 -36.17 50.68
55.3 7.72 -28.71
-36.46 30.97 -42.6
62.22 23.86 23.9
25.02 1.153 10.22
-14.42 18.49 27.81
-27.96 -4.972 85.84
8.787 -4.373 -58.43
26.64 12.69 19.19
-84.18 -4.95 45.28
-84.74 -25.73 -35.97
-42.09 -28.34 -12.61
10.66 47.76 -44.8
-1.723 3.974 5.141
56.49 2.745 -69.46
-22.01 80.34 60.9
-26.12 -93.1 -2.449
-0.205 6.842 -78.72
42.94 -92. -7.968
-18.73 2.342 0.479
39.97 12.52 -54.63
15.81 60.33 13.61
59.67 33.79 -68.68
4.364 52.92 32.19
23.61 70.1 13.64
27.79 -59.77 -49.68
-64.33 72. 61.09
13.55 18.15 5.315
7.314 -29.92 12.82
-49.38 -24.9 44.36
-24.45 -69.3 -1.522
83.85 -38.7 -70.19
15.59 93.08 -1.697
43.24 69.47 72.45
78.55 25.3 79.2
-17.28 -18.31 -20.15
-31.92 70.02 -27.14
0.6357 -4.638 -49.78
-4.792 108.5 -5.108
-22.01 1.372 62.
5.902 -13.07 -65.87
6.591 -39.21 49.06
31.88 -99.63 -34.64
7.689 -60.52 102.1
10.72 25.88 -82.38
-7.578 -31.8 -92.83
52.38 72.55 -13.39
-51.83 64.27 -29.81
-0.4243 78.16 -44.03
14.78 -18.66 50.82
-29.26 69.76 74.43
-15.27 94.31 33.17
-35.8 9.186 28.47
34.52 88.48 32.84
12.01 -48.03 -16.42
49.93 41.95 -70.76
-37.08 46.64 76.62
15.44 10.12 -29.66
17.82 -11.93 -8.03
-9.871 -89.02 -10.21
27.7 19.63 -4.095
-73.3 -13.28 -1.219
-12.56 38.48 105.6
-29.65 61.67 0.3227
-33.9 -72.35 44.13
32.17 -8.111 12.51
-8.567 45.69 17.
-26.43 26.82 -104.
38.86 88.93 -6.608
-75.43 30.7 59.45
26.31 28.54 96.66
-34.02 22.04 23.7
4.408 -81.52 32.4
25.64 -61.24 6.317
84.43 -51.95 18.53
53.62 -27.38 -57.33
59.42 -1.463 5.387
109.1 -28.27 25.41
-33.62 -9.451 0.5853
66.03 -67.58 59.32
79.96 26.83 -19.26
77.53 77.64 9.453
44.44 -22.04 24.73
31.4 -59.19 26.3
67.46 11.74 -24.67
34.49 -51.71 47.07
115.4 -41.4 23.2
-1.276 -13.18 7.964
0.02661 -54.95 37.3
54.41 -55.55 -53.74
-48.38 -37.2 -8.213
56.36 0.57 87.32
-60.35 -47.21 -18.71
-57.28 -39.38 -50.14
51.53 -52.31 49.69
9.793 -84.87 -38.09
24.86 -36.64 62.66
-82.59 -41.4 29.96
42.94 -75.56 -41.23
51.17 -25.92 6.284
-17.18 -22.32 98.38
3.67 -19.04 45.05
-5.468 -20.97 -47.63
19.02 -24.59 -68.8
-49.82 40.31 -76.97
-39.2 4. -58.53
-37.33 0.5794 -45.72
-72.88 -53.43 46.31
45.94 44.05 8.62
33. 40.83 -96.92
67.23 -74.93 69.56
45.48 -35.57 -1.472
18.7 -38.64 -12.79
-33.92 85.53 2.386
-51.05 -78.22 11.37
8.482 66.74 47.23
35.11 60.36 70.98
-21.41 6.655 -49.69
94.78 41.92 -54.86
-65.02 -4.562 -33.1
102.1 7.977 34.95
5.509 -38.97 -40.31
92.03 51.33 -51.07
94.57 -60.04 51.46
-82.37 38.01 -30.31
-19.73 30.07 -55.15
-18.88 29.87 25.34
37.3 -5.135 33.83
-24.77 45.83 -20.48
-28.31 -33.75 23.72
18.03 -24.55 34.43
58.76 -15.62 -29.73
-20.82 72.18 -48.34
68.72 -30.93 -26.14
84.52 -21.26 70.31
37.31 26.01 19.47
-61.71 6.947 -29.38
-5.446 26.73 62.95
-34.08 25.72 35.3
-30.56 31.63 76.76
-80.77 -1.443 -18.37
-7.164 0.8061 49.49
30.13 -9.699 -48.45
-95.91 -42.58 26.2
117.4 7.997 -20.82
-8.866 -5.519 -95.17
49.3 -61.55 -83.61
28.63 -47.75 -3.527
37.49 -14.91 -65.56
-81.19 -6.43 10.44
49.13 42.77 26.36
-24.74 -55.63 -26.52
18.84 61.75 78.58
17.47 8.165 15.18
8.07 26.21 0.6697
20.28 11.79 59.81
0.5362 24.19 -20.36
-1.519 37.3 17.41
-21.19 -51.11 29.28
74.46 -26.21 -82.29
20.09 43.6 39.03
16.89 -6.438 -66.63
-7.358 46.25 -42.86
-62.73 -62.11 22.16
-38.75 -68.79 -16.81
6.453 16.13 35.3
19.07 6.044 38.15
-32.61 0.8178 -34.64
-82.01 43.76 59.13
-32.52 19.85 -6.004
-39.28 56.03 -13.56
-46.38 25.56 25.59
-19.8 33.57 -26.63
32.8 21.9 35.76
-19.97 -32.49 -69.56
23.59 75.18 -26.17
0.8786 6.205 32.6
-63.57 -58.86 70.41
49.37 59.47 33.95
-12.67 -49.34 -67.04
51.19 13.72 106.9
-67.2 41.46 -0.2036
-14.45 -25.97 -42.12
-36.17 19.34 -6.3
27.93 45.27 19.51
9.036 -9.228 -25.36
-74.8 82.44 -12.8
18.43 -67.36 -69.77
22.88 92.92 -17.74
-40.79 77.71 -18.83
15. 109.7 -37.84
-47.78 -33.52 53.34
-6.951 -59.33 -15.78
110.7 -1.26 -30.79
68.92 53.92 48.25
-8.993 -31. 3.133
48. 46.57 -57.49
53.46 14.65 26.36
-18.32 -53.73 94.6
84.3 43.4 -14.56
-41.56 5.002 106.2
15.69 81.05 90.48
39.7 20.74 57.43
72.05 -81.62 -10.45
-0.3561 50.67 -24.51
36.42 4.346 -21.93
51.56 -24.38 60.67
26.09 -17.63 -18.51
31.28 -2.251 -30.56
27.06 -23.41 -59.8
-8.439 8.014 25.77
50.16 40.36 40.3
28.29 24.14 -22.07
44.19 10.56 72.48
28.81 84.49 19.55
-73.49 56.01 -23.37
0.6095 -4.242 -31.8
16.74 -22.14 70.25
34.24 -6.841 -91.47
7.233 43.9 -20.58
-21.12 13.75 66.22
60.44 -18.05 -55.95
-15.01 -47.94 46.17
-27.05 -45.36 2.973
3.98 25.43 55.82
-53.16 98.91 -22.81
1.197 15.44 62.79
9.092 1.482 88.62
2.061 92.09 17.37
7.956 6.017 -38.1
35.76 -11.9 1.259
59.04 22.54 83.83
22.46 82.95 29.4
18.6 -2.625 -31.09
52.1 4.502 -46.11
6.926 -76.32 31.26
-39.82 55.31 30.72
16.99 -13.14 7.549
-20.91 -20.06 57.93
-50.27 57.28 2.539
-20.36 -77.14 52.22
-12.72 95.31 15.01
4.868 -109.5 -36.34
-14.34 36.64 93.01
-62.6 2.191 11.96
56.15 -36.47 62.48
42.22 102.6 -15.27
12.07 -96.52 60.08
-21.58 38.69 30.92
79.1 -27.61 -19.09
15.17 59.48 -46.37
-10.98 -15.58 -7.773
33.55 50.66 -26.9
97.61 3.856 53.88
-53.92 39.35 -3.268
-76.19 -45.12 17.12
-13.44 39.11 49.4
-31.51 -42.34 89.14
-68.49 45.71 57.96
71.76 -23.2 -6.819
97.59 -16.97 -3.64
22.42 -26.88 4.898
-65.46 -14.55 -12.27
55.24 -90.57 -4.158
-92.16 32.65 10.57
38.74 11.51 4.227
-44.06 -58.63 -26.68
17.59 -60.37 31.35
-24.44 38.92 98.98
-78.5 11.69 48.59
74.15 90.96 26.64
-35.25 12.25 73.43
88.2 38.29 10.86
7.289 67.52 -69.1
41. -26.13 -53.21
93.94 51.85 7.466
61.14 -19.95 10.09
21.35 -111.3 21.45
-29.62 -0.1808 5.77
67.64 -28.24 82.82
15.36 -60.21 -8.955
10.82 -31.04 22.63
62.74 91.22 -5.309
19.49 -43.32 5.145
38.9 -53.95 33.37
-32.04 -42.09 -34.56
-5.528 -83.56 2.369
60.04 -12.49 -20.59
54.78 7.793 -13.61
-38.75 -36.87 19.82
79.48 -26.58 -21.96
-69.36 -19.49 -0.5427
13.42 2.636 89.02
44.92 -107.6 5.919
45.97 9.256 85.22
-1.871 -31.66 6.737
82.73 -52.1 50.49
89.06 -35.26 -48.34
-16.8 -37.72 -37.51
57.03 -81.94 12.27
-61.49 -9.459 -68.24
95.31 16.88 -0.9587
-31.71 -19.46 76.9
-39.37 -69.65 29.92
25.55 -47.5 -15.72
35. -37.06 -2.049
-76.14 9.299 82.61
63.25 45. 95.55
24.33 -49.37 -100.3
11. -91.28 -58.81
20.94 -1. -46.81
58.88 9.766 4.549
-45.64 -52.86 92.68
-66.12 -6.691 -32.79
39.48 -47.1 -4.742
-44.14 24.1 1.914
-23.37 -19.45 -56.79
4.649 59.38 40.7
-28.27 6.498 -57.4
43.81 -25.07 41.44
49.51 -52.93 98.92
2.708 -10.42 40.2
-65.2 -19.87 -64.07
54.14 23. -61.8
66.52 45.18 57.9
-44.74 -26.42 -24.08
-85.12 -29.82 62.96
42.95 -78.33 35.86
46.15 45.66 -23.03
28.21 -46.26 14.17
-9.712 9.747 -84.65
-58.97 -52.77 -1.822
23.8 -73.56 84.33
-22.68 32. -14.82
47.89 36.7 -36.1
-8.43 53.07 68.
-8.583 28.41 32.31
10.26 -5.419 -41.61
60.45 45.71 22.79
12.29 -57.62 55.19
65.42 -62.75 18.35
83.54 -47.59 29.79
69.19 -14.86 31.04
-10.54 8.315 -29.55
50.01 17.83 -74.29
79.16 -55.14 -54.59
-27.46 -35.31 40.16
0.4955 -3.05 40.14
-20.62 26.76 0.7119
-28.28 79.56 83.96
67.67 -19.41 62.59
-65.24 -17.5 -77.65
-57.39 65.07 -64.36
36.58 -64.04 45.58
-95.34 12.93 -42.55
63.38 -24.65 -66.79
39.95 -28.14 -22.54
76.69 14.01 -39.98
-13.56 15.45 33.68
53.27 47.96 86.37
-55.96 65.15 -51.57
43.16 16.68 37.58
83.33 -72.83 -27.93
-50.64 -18.54 -23.46
-52.79 29.78 90.07
-5.052 38.96 -75.83
-24.83 17.68 79.59
-78.38 -62.42 -24.48
-7.656 82.71 14.66
-35.29 13.46 -46.75
23.29 -39.6 -64.43
-45.45 -46.28 -25.29
12.42 19.31 43.1
83.61 17.69 -55.61
-73.58 9.488 -19.52
-69.14 22.02 -75.68
28.29 -45.39 -15.08
-39.75 -0.1481 -14.79
47.92 44.93 79.75
-19.33 -88.82 8.91
3.022 26.89 -52.15
-59.47 -17.5 71.52
-23.64 30.05 -18.06
[...]
POINT_DATA 7846
SCALARS radius float
LOOKUP_TABLE default
6.979
5.094
5.295
6.703
5.274
6.054
6.152
6.339
6.743
6.319
6.687
5.114
6.784
7.603
7.345
7.609
6.694
6.904
7.569
5.787
7.504
7.782
6.212
5.177
5.475
5.364
6.829
7.632
6.91
5.359
6.349
6.806
7.833
7.542
7.19
6.09
7.685
6.791
6.311
6.763
6.874
7.661
6.955
6.575
7.098
5.547
7.418
5.42
6.898
6.129
7.77
7.016
5.911
7.686
7.861
7.014
6.839
6.646
6.596
6.115
7.602
7.845
6.911
5.968
6.347
6.989
7.174
6.749
6.417
7.057
7.65
7.234
6.68
7.376
6.795
6.382
7.392
5.899
6.616
7.34
6.25
7.226
6.67
6.621
7.61
6.944
7.242
6.185
5.906
7.776
7.075
7.6
6.455
7.513
6.754
7.422
6.401
6.782
7.047
6.814
7.14
7.293
6.735
7.629
6.586
7.482
7.566
7.628
7.039
6.61
6.187
6.727
7.498
6.48
6.897
7.886
7.162
6.053
7.057
6.766
4.649
7.582
6.358
6.119
6.943
7.801
7.408
6.266
6.598
6.701
6.039
6.058
6.795
7.45
6.682
7.169
7.869
6.731
7.126
7.026
6.426
6.658
7.66
6.674
6.55
7.797
7.839
5.856
7.036
5.87
6.938
7.501
7.793
7.258
6.437
6.649
7.227
6.772
7.806
5.284
6.943
7.459
7.572
6.684
6.074
6.947
6.844
7.838
7.435
7.854
7.643
6.62
7.541
6.392
7.603
6.388
5.882
6.342
7.752
7.624
7.076
7.815
7.211
7.482
6.047
6.38
7.598
7.553
6.503
5.971
7.033
6.536
6.167
6.638
5.751
6.49
6.726
7.283
7.56
6.882
7.565
6.633
5.739
7.467
7.467
7.54
7.487
6.168
7.253
6.887
7.515
5.994
5.862
7.577
6.654
6.596
7.387
7.027
6.765
6.281
6.535
7.035
7.798
6.407
6.236
6.87
7.05
6.739
7.075
7.493
7.233
7.471
7.047
7.636
7.452
7.043
7.553
6.805
6.281
7.253
7.887
5.797
6.861
7.706
6.423
7.559
7.55
6.994
5.997
7.116
7.09
7.285
7.146
7.039
7.853
7.23
6.395
6.584
7.822
7.766
7.175
7.194
6.707
6.458
6.888
5.973
6.
6.426
7.257
6.658
7.256
6.594
6.876
6.93
6.867
7.648
6.617
6.779
6.627
7.774
7.761
7.597
7.59
6.427
6.831
6.253
6.936
7.23
6.971
6.666
6.62
6.786
6.681
6.62
7.228
7.403
6.272
6.432
6.512
7.803
7.371
6.568
6.633
5.085
7.836
6.53
7.097
6.764
6.526
6.578
7.411
7.426
6.439
7.668
7.083
7.675
7.541
6.41
6.4
6.939
6.139
6.631
6.899
7.144
7.547
7.557
7.625
6.993
6.814
7.83
7.626
6.698
6.943
6.659
7.688
7.384
7.735
7.592
6.42
7.662
6.46
6.417
7.213
6.547
6.11
6.078
6.284
6.749
6.525
7.132
7.368
6.495
6.169
6.662
7.813
5.958
7.058
6.832
6.636
6.322
6.704
7.569
6.147
7.289
7.458
6.823
6.581
7.565
7.112
6.621
6.238
7.33
7.05
6.188
6.431
7.413
6.429
7.512
7.528
6.488
7.068
7.284
7.612
7.608
6.083
7.21
7.2
6.587
7.072
7.654
6.788
7.566
6.741
7.646
7.503
7.058
7.405
6.182
7.193
7.406
7.87
6.746
6.814
6.295
7.616
7.17
7.621
7.15
7.288
6.549
6.973
7.55
6.057
7.623
6.732
7.609
6.545
6.598
7.524
6.21
6.898
6.785
7.332
6.887
6.796
6.598
7.143
7.066
6.691
7.634
7.364
6.481
6.986
7.357
6.527
6.725
6.105
7.668
7.063
6.666
7.024
6.115
7.685
7.576
7.571
7.607
6.184
6.854
7.778
7.032
6.645
6.957
6.76
5.874
6.876
6.555
7.511
6.764
6.558
7.077
7.455
6.972
7.828
7.286
7.002
6.932
7.195
6.887
7.531
7.054
6.854
6.9
6.465
6.89
6.694
7.319
5.611
7.66
5.137
6.194
7.535
7.887
6.893
6.372
5.228
7.859
7.348
7.832
7.701
7.064
7.852
6.489
6.162
7.127
6.5
7.843
7.641
5.98
7.825
7.04
7.592
7.273
6.943
7.788
6.641
7.028
7.184
7.4
6.926
6.88
6.858
7.453
6.781
6.291
7.52
7.753
6.792
7.706
6.807
5.647
6.688
7.586
6.506
6.773
6.762
6.61
6.723
6.704
6.009
6.332
7.078
7.617
7.146
7.775
6.733
7.1
7.558
6.795
6.679
6.637
7.62
7.63
6.283
6.801
7.06
6.62
6.991
7.587
7.225
6.251
7.796
6.845
7.857
7.882
6.549
6.729
6.61
7.332
6.955
6.507
7.781
6.802
7.776
6.397
7.206
7.823
6.684
6.885
6.821
7.577
6.995
7.655
6.77
6.598
6.674
7.804
7.7
7.865
6.93
6.372
6.715
7.395
7.711
6.368
7.619
7.355
7.784
7.757
4.939
7.797
7.304
7.742
6.09
7.139
7.694
6.684
6.226
6.994
7.361
6.985
6.548
6.542
6.763
5.925
6.987
7.011
7.042
6.672
7.864
7.736
7.802
7.029
7.057
6.602
7.472
7.179
7.556
6.942
6.123
7.008
7.304
6.353
7.586
6.589
7.83
6.635
7.055
7.66
6.798
7.297
6.864
6.96
6.341
6.418
6.811
6.343
6.345
7.567
7.478
7.658
7.033
7.031
6.758
7.596
6.904
6.859
7.305
6.882
7.551
6.792
7.721
6.546
7.164
6.879
7.554
7.704
7.374
7.578
7.062
7.561
7.557
7.851
7.537
6.938
7.534
7.649
6.755
7.619
6.767
6.015
7.095
5.561
7.053
6.612
7.8
7.492
6.892
7.113
7.648
7.246
7.598
7.152
6.454
6.732
6.703
7.304
6.999
6.615
6.735
6.617
6.534
6.802
6.957
7.521
7.606
6.501
6.718
7.44
7.58
6.704
7.608
7.073
6.66
7.513
6.77
5.757
6.624
7.483
6.524
7.465
6.939
6.771
7.624
6.493
7.772
6.912
6.679
7.243
7.607
7.725
7.288
6.848
7.57
6.742
7.233
7.652
6.968
6.469
6.371
6.391
7.538
7.606
6.789
7.588
7.645
6.66
7.026
7.369
6.535
7.868
7.516
7.076
6.822
6.805
6.724
7.508
7.628
6.538
6.879
6.926
6.128
7.081
7.352
7.512
6.821
7.575
7.876
7.045
7.312
6.458
6.018
6.815
6.57
7.148
7.555
7.662
7.539
7.153
6.609
7.573
5.993
6.459
6.598
7.299
6.654
7.131
7.047
6.72
6.978
7.488
7.556
6.808
7.043
7.603
6.552
7.373
7.142
6.488
7.032
7.069
5.942
6.673
6.927
4.973
7.592
7.848
6.667
6.911
7.193
6.993
7.413
7.862
7.426
7.189
7.002
6.501
6.968
6.909
7.58
7.581
7.517
7.558
7.597
6.884
6.872
7.885
6.778
7.843
6.997
7.303
6.808
4.491
7.568
6.85
6.476
7.087
7.78
7.578
6.641
7.866
7.823
7.859
6.541
6.789
7.43
6.704
6.55
7.448
7.505
6.873
7.829
6.785
6.978
7.224
7.278
7.816
7.536
7.427
6.988
6.933
7.24
7.456
7.589
6.509
3.838
7.85
7.248
7.469
6.939
7.509
6.876
6.628
7.872
7.855
7.779
7.721
5.995
7.837
7.031
6.792
7.486
6.839
7.094
7.667
6.951
7.107
7.211
7.088
7.901
6.887
6.467
7.282
6.539
7.147
7.603
7.065
6.665
7.073
7.158
6.74
6.633
7.796
7.011
6.609
6.904
7.811
7.89
7.798
6.801
4.175
6.768
7.32
6.865
6.346
7.493
6.521
7.477
7.014
5.611
6.728
7.54
7.831
7.736
7.825
6.623
7.351
7.296
7.448
7.612
5.807
7.722
6.892
5.599
7.801
6.954
7.462
7.399
6.584
7.577
7.366
6.967
7.668
6.509
6.597
7.745
7.848
7.339
6.966
7.623
7.283
7.33
6.588
6.513
7.245
6.738
6.789
6.85
6.876
7.074
7.856
7.329
6.288
7.253
6.437
7.862
7.627
7.295
7.083
5.018
7.743
6.98
7.088
7.806
7.432
7.062
7.492
7.524
7.87
7.143
6.935
7.8
6.278
7.481
5.679
7.401
6.968
6.87
6.91
6.329
7.758
7.403
6.745
6.731
7.725
6.503
7.424
7.087
7.403
7.063
7.216
6.618
7.736
6.672
6.751
6.831
6.946
6.587
6.984
7.761
6.299
7.592
5.641
7.006
7.838
7.395
7.045
6.923
7.441
6.682
7.577
7.752
7.618
7.366
5.922
6.872
7.68
6.107
7.834
7.168
6.071
7.069
6.234
7.82
6.591
7.116
6.736
6.965
6.996
7.825
7.186
7.633
6.728
7.811
6.569
7.081
6.477
6.854
7.123
7.858
7.021
7.805
7.795
7.124
6.68
6.503
6.469
7.835
7.735
6.102
7.126
6.953
7.261
4.979
7.336
7.201
7.848
6.736
7.211
6.929
5.935
7.141
6.742
7.338
6.486
7.287
6.599
6.64
6.74
5.781
4.816
7.611
6.731
6.895
7.277
7.251
6.094
7.533
7.655
7.068
6.694
6.987
6.993
5.519
6.548
7.629
7.683
7.231
5.848
7.464
7.275
7.762
6.456
7.309
6.82
7.025
7.081
7.617
6.62
7.226
7.085
5.364
7.679
7.386
6.616
7.677
7.547
6.827
7.78
7.836
6.502
7.246
6.98
7.82
7.593
7.292
7.64
6.884
7.18
7.519
6.497
6.863
7.671
7.014
6.194
7.155
6.856
7.807
7.107
7.114
6.59
7.546
6.511
6.745
6.901
6.919
7.33
7.128
6.996
7.593
5.623
6.851
6.258
7.674
7.705
6.569
7.627
7.541
7.376
6.878
7.394
7.241
7.054
7.097
6.615
7.463
7.305
6.308
6.663
4.479
7.672
7.008
7.208
7.714
7.085
6.479
7.539
6.883
6.591
7.129
7.273
6.822
7.699
6.593
7.248
6.615
7.023
7.621
6.047
6.663
7.629
6.826
6.807
7.599
7.314
7.147
6.523
7.218
7.645
7.03
6.716
7.699
7.833
7.147
7.623
5.96
7.46
7.151
6.809
7.691
7.748
5.635
7.471
6.85
7.085
6.894
5.673
6.628
7.807
6.471
7.019
6.919
5.241
7.199
6.845
7.042
7.645
6.634
6.823
6.732
6.998
7.618
7.205
7.195
6.935
6.278
7.854
7.599
6.407
7.702
7.667
7.56
5.296
7.625
7.416
6.858
7.73
7.59
7.187
7.547
7.129
7.665
7.483
7.261
7.161
7.067
7.449
6.217
7.361
6.644
5.942
7.653
6.704
7.204
7.651
6.064
7.629
7.308
5.594
7.685
7.59
7.195
6.939
7.133
7.68
7.299
5.349
6.795
7.172
5.641
7.242
7.401
6.129
7.593
6.366
7.293
7.304
5.785
6.816
6.635
6.815
7.659
6.927
6.803
7.594
6.901
7.521
7.541
6.765
7.005
7.316
7.254
7.581
7.273
6.972
6.789
6.217
7.197
7.379
6.717
7.023
7.608
6.951
7.296
6.468
6.904
7.123
7.023
6.905
7.58
7.325
7.624
7.169
7.657
7.268
6.861
6.947
7.042
7.258
6.958
6.534
7.656
7.421
6.686
7.439
6.992
6.949
7.405
7.126
7.072
7.589
7.638
7.761
7.341
7.632
6.6
7.565
7.608
7.607
7.126
7.26
7.152
7.077
6.649
7.151
7.1
7.738
7.419
7.299
7.605
6.801
6.413
7.637
6.663
7.233
7.623
7.551
7.634
7.633
5.777
7.319
7.576
7.617
7.674
6.929
7.173
7.557
7.491
7.322
7.23
6.889
7.554
7.631
7.084
7.443
6.867
7.228
7.539
7.57
6.494
7.438
6.757
6.781
7.896
7.672
6.605
7.44
7.492
7.234
6.353
7.566
7.088
7.591
6.064
7.388
7.8
7.891
7.295
6.641
6.941
6.748
7.568
6.627
7.312
7.557
7.633
7.844
6.946
7.292
7.667
7.524
6.886
7.217
7.61
6.998
7.454
7.045
6.583
7.564
5.435
6.341
6.566
6.606
7.291
7.747
7.781
6.687
7.493
6.652
7.046
6.776
7.227
6.825
6.753
6.908
7.221
6.931
6.856
7.514
6.619
6.375
6.802
7.393
6.62
7.565
7.511
7.548
6.9
7.181
6.888
7.144
7.
6.945
6.811
6.493
7.098
7.21
6.995
7.576
7.408
7.026
7.645
6.929
7.612
6.711
7.049
6.801
7.502
7.562
7.537
7.455
6.777
5.086
7.624
7.24
7.615
7.068
7.889
5.489
6.865
7.247
7.833
7.
7.575
6.453
6.694
7.902
7.539
7.173
7.159
6.563
6.837
6.774
6.19
7.002
7.583
7.128
7.759
7.852
7.206
7.596
7.222
7.581
7.049
6.669
7.586
7.855
7.339
7.074
7.24
6.635
7.614
6.707
7.631
7.49
7.22
7.202
7.526
7.521
7.569
7.562
7.775
7.035
7.671
7.553
7.357
7.288
7.536
7.855
6.908
6.867
7.014
7.415
7.804
7.703
6.885
6.54
7.755
6.39
7.102
6.867
7.542
7.824
7.456
7.529
7.196
6.399
7.766
6.743
7.83
7.621
6.81
6.034
7.884
7.522
6.864
7.07
7.101
6.408
7.542
7.85
7.225
7.647
6.696
7.852
7.838
7.141
6.205
5.879
7.859
6.827
7.282
6.7
7.395
7.617
7.39
6.849
7.807
7.833
7.395
6.929
7.832
7.328
7.801
6.825
7.374
7.358
7.196
7.328
7.579
6.906
7.242
7.177
6.847
7.56
6.51
7.585
7.156
6.75
7.181
7.789
7.044
7.795
7.863
7.519
5.572
5.692
7.23
6.684
7.598
7.027
7.839
6.997
7.711
7.393
7.831
7.852
7.823
6.805
6.657
6.981
7.306
7.171
6.953
7.883
7.47
6.892
7.834
7.877
6.856
7.773
5.105
7.509
7.791
7.856
7.296
7.794
6.883
7.274
5.043
7.671
6.774
6.789
7.87
7.059
7.616
7.507
7.055
6.102
7.231
6.774
7.664
7.497
7.912
7.009
7.117
7.5
7.88
7.606
7.64
7.155
7.835
6.787
7.4
7.488
7.836
7.332
6.472
7.45
7.123
7.835
5.422
7.185
6.96
5.511
7.83
7.643
6.695
6.494
5.153
6.936
7.033
7.862
7.715
7.503
7.079
6.962
6.292
7.671
7.822
7.316
7.84
6.226
7.526
6.47
6.783
7.857
7.312
7.653
7.87
5.676
6.908
7.191
7.008
6.899
6.916
5.381
7.438
6.423
6.913
4.28
6.759
6.822
5.423
7.349
7.827
6.336
6.253
7.066
7.713
6.378
7.84
5.812
6.814
6.485
6.917
7.509
6.628
7.259
7.617
7.338
5.488
7.85
6.85
6.792
7.801
7.128
7.736
7.104
7.803
5.758
7.434
7.876
7.415
6.605
7.747
7.191
6.267
6.347
5.729
6.853
7.432
7.882
6.675
6.415
6.789
7.869
6.622
7.846
7.489
7.725
7.799
7.629
7.185
7.861
6.931
7.618
6.624
7.785
7.833
7.672
6.783
7.379
7.005
6.713
7.613
7.498
5.566
7.277
7.74
6.857
7.711
7.68
7.265
6.878
7.365
7.847
7.655
6.177
7.856
6.834
6.713
6.724
7.56
6.833
7.044
7.557
6.3
7.591
7.666
7.823
6.302
7.655
7.26
6.548
6.825
7.075
7.88
6.357
6.796
7.82
7.633
7.499
6.744
7.327
7.845
5.422
7.308
7.029
6.921
6.056
7.389
7.072
6.933
7.617
7.811
6.796
7.506
7.774
7.695
7.625
6.928
7.749
6.782
6.923
7.035
7.577
7.081
7.729
6.704
6.948
6.808
7.838
7.266
6.913
7.047
7.792
7.676
7.816
6.412
7.433
6.795
7.453
6.997
5.498
6.021
7.863
6.962
5.568
7.651
7.795
7.753
7.818
7.66
6.925
6.814
7.761
5.727
7.071
7.201
7.855
7.687
7.697
6.708
6.824
6.341
7.804
7.316
7.586
7.511
7.771
7.349
7.622
6.724
7.833
7.665
6.604
7.831
5.152
7.387
6.963
6.866
6.919
7.832
7.504
7.442
6.012
7.731
6.779
7.813
7.22
7.726
7.063
6.768
7.786
7.693
7.368
7.772
7.843
6.525
7.269
7.639
6.577
7.198
6.962
6.894
6.455
7.859
6.968
6.317
6.861
7.667
6.484
6.146
7.512
7.302
6.56
5.02
6.942
6.979
7.21
7.745
5.718
4.939
6.765
7.84
7.612
6.73
6.692
6.779
4.986
6.132
6.658
7.722
6.058
7.617
6.278
6.194
7.555
7.723
7.301
7.819
7.614
6.522
7.785
7.799
7.729
6.918
7.526
7.064
6.963
7.804
7.719
7.251
7.713
6.778
7.509
7.73
6.485
6.988
7.632
6.775
7.613
6.589
6.64
7.296
7.099
7.062
6.322
6.792
7.33
6.517
6.808
7.468
7.718
7.004
7.729
7.641
6.668
7.192
7.435
7.199
7.176
7.572
6.228
7.312
7.729
7.82
7.103
6.225
7.099
7.611
7.261
7.604
6.869
7.771
6.806
6.813
7.052
7.539
6.715
7.727
6.954
7.624
6.687
7.601
7.552
7.759
7.379
6.196
7.658
7.238
7.758
6.937
7.111
7.729
7.52
7.06
7.609
6.932
7.307
7.124
6.924
7.493
7.611
7.28
5.816
7.61
7.629
7.734
6.994
7.162
7.455
7.16
5.26
6.086
7.832
6.282
7.8
6.06
6.157
6.8
6.963
6.973
7.729
7.529
7.327
6.926
7.033
7.337
5.675
7.408
7.742
6.602
7.643
7.597
7.656
7.542
7.568
7.778
7.021
6.795
6.284
7.573
6.834
7.674
7.552
6.621
7.208
7.721
7.663
7.644
6.057
7.053
6.295
7.317
7.103
5.811
6.696
6.854
7.513
7.118
7.174
7.006
6.289
6.914
7.65
7.004
6.904
7.208
7.697
5.55
5.465
7.287
7.642
7.114
7.635
6.696
6.501
7.741
7.608
7.242
5.65
6.321
6.376
7.636
7.698
6.697
6.905
7.388
6.462
7.259
7.552
7.642
7.662
6.553
7.693
7.387
7.293
6.708
6.876
7.633
7.591
6.731
7.632
7.27
7.236
6.547
6.958
7.46
6.115
6.619
6.686
7.622
6.442
6.895
7.371
7.666
7.593
7.53
7.385
7.3
7.434
7.586
5.914
5.752
6.867
7.361
7.332
7.119
7.609
6.757
6.771
7.222
7.787
7.559
6.73
7.122
7.566
7.556
6.386
7.813
7.622
6.071
6.993
6.966
7.667
6.831
6.824
6.936
7.17
6.538
7.586
6.885
7.482
6.285
7.113
6.72
6.893
7.73
7.129
7.7
6.17
4.622
7.117
7.651
7.306
7.616
7.444
7.594
7.22
5.345
5.992
6.995
7.618
6.864
7.26
7.445
7.625
7.542
6.174
7.626
7.56
6.787
7.341
6.816
6.175
6.467
7.245
7.67
7.523
6.257
7.392
6.344
5.842
6.074
6.838
6.94
6.979
5.575
7.757
6.215
7.661
7.704
7.542
7.159
6.898
7.015
7.627
6.486
6.803
6.637
7.355
7.652
7.501
6.902
7.019
6.973
7.664
7.604
7.386
7.724
7.599
7.58
7.751
7.644
7.336
6.607
6.637
6.792
7.325
7.581
7.46
7.383
7.597
7.638
6.437
7.742
6.096
7.626
7.67
6.877
6.79
7.044
7.664
6.458
7.467
5.708
6.231
7.591
6.605
7.275
7.139
7.571
7.563
6.286
7.644
6.615
7.527
7.001
7.368
6.995
6.798
7.159
7.153
7.566
7.622
6.185
7.255
6.591
7.042
7.511
6.642
6.891
6.266
6.768
5.224
7.034
7.462
6.966
6.766
6.969
4.821
4.408
6.507
7.635
6.721
6.685
6.628
7.242
7.651
6.848
7.607
6.96
6.517
7.749
7.375
7.215
6.236
7.251
5.779
6.808
7.394
7.663
7.264
7.612
6.309
6.806
6.752
7.556
7.564
7.053
7.295
7.613
6.726
7.149
7.166
7.082
6.98
7.662
6.823
7.609
7.613
6.992
6.713
7.021
7.484
7.283
7.109
7.309
6.518
6.598
7.662
7.447
7.419
7.206
7.041
7.474
7.668
6.985
6.955
7.552
6.414
6.835
7.055
7.342
6.704
6.994
7.336
7.637
7.551
5.634
7.281
7.578
6.805
7.593
7.598
7.649
6.929
6.775
7.456
7.194
6.695
7.141
6.196
7.638
7.564
5.997
7.197
7.222
7.332
6.822
7.376
7.632
7.374
7.004
7.234
6.495
7.566
7.344
6.496
7.441
7.596
7.579
6.974
7.677
7.473
7.229
6.785
7.224
7.459
7.095
7.055
7.545
7.042
7.155
7.38
6.968
7.605
7.6
7.633
7.618
7.596
7.038
7.571
7.019
7.57
7.652
7.235
6.968
6.77
7.142
7.099
6.037
7.674
5.388
7.103
7.331
7.232
7.307
7.605
7.488
7.76
7.232
7.113
7.709
7.022
7.619
6.749
6.622
7.064
7.284
7.428
7.308
6.176
7.583
7.063
7.532
7.458
4.274
7.62
7.886
7.385
5.964
4.694
6.678
7.143
7.636
6.799
7.595
7.527
7.431
7.495
4.388
7.474
5.947
7.158
7.01
6.996
6.423
7.59
7.235
7.59
7.698
7.626
7.779
7.438
7.541
7.593
4.87
7.451
7.574
7.589
7.209
7.398
7.615
7.544
7.09
5.795
6.798
7.387
7.457
7.092
5.606
7.466
7.009
6.941
7.438
7.576
6.109
7.578
6.703
7.144
7.043
7.102
6.697
5.716
6.905
7.566
7.599
6.939
6.864
7.289
7.577
7.541
7.892
6.827
7.604
7.433
7.266
7.918
7.518
5.598
7.26
6.945
7.528
7.569
7.59
7.192
7.275
7.59
7.436
6.965
6.96
7.551
7.327
6.995
7.387
7.011
7.587
7.635
5.827
6.873
6.718
7.621
7.604
6.439
6.855
7.803
6.858
7.095
7.51
7.51
7.275
6.629
7.516
7.392
7.621
6.533
7.275
7.628
7.606
6.786
7.254
7.132
7.613
7.396
7.59
6.909
7.272
7.557
7.375
7.866
6.804
7.482
7.332
7.613
7.575
6.819
7.59
6.708
7.055
7.464
7.213
6.917
6.784
7.015
7.916
6.153
7.239
5.339
6.858
7.386
7.647
6.9
7.858
6.868
5.761
7.338
7.434
5.445
6.682
7.199
7.609
5.947
7.581
7.272
7.573
7.864
6.547
7.611
7.633
7.839
7.389
6.781
7.6
7.458
7.482
7.906
7.063
5.697
7.463
7.631
7.629
7.171
7.607
6.475
7.184
7.56
7.381
7.411
7.506
4.922
7.612
7.482
4.989
7.605
7.534
7.861
5.527
6.977
7.584
7.456
7.523
7.342
7.324
7.592
7.05
6.885
7.217
7.405
6.74
7.416
5.948
7.488
7.105
7.518
7.046
7.544
7.586
7.443
6.98
7.065
7.531
7.613
7.198
7.01
7.553
4.079
6.566
7.596
7.479
6.792
7.838
7.887
7.184
7.876
7.601
6.94
6.575
7.388
7.539
6.754
7.462
7.505
7.606
7.532
7.086
7.266
7.569
7.562
7.213
7.112
7.551
7.878
7.582
6.828
7.29
7.322
7.372
7.55
7.445
7.357
6.985
6.84
7.149
7.587
7.88
7.02
7.704
7.582
7.07
7.86
6.377
7.594
7.218
7.566
7.185
7.889
7.566
5.249
7.052
7.858
6.875
7.506
5.234
6.298
7.43
7.176
6.863
6.564
5.611
7.846
7.526
7.527
7.342
7.542
6.859
7.519
7.024
7.878
7.212
7.443
7.894
7.251
6.63
7.611
5.031
7.53
7.883
6.781
7.446
7.194
6.645
7.293
7.468
7.84
7.39
7.031
4.128
7.283
6.517
6.709
6.09
6.28
7.338
7.13
7.115
7.571
7.63
7.232
7.811
6.929
7.463
6.655
7.203
7.145
7.367
7.119
6.549
7.886
7.843
7.677
7.211
6.553
7.845
7.826
7.449
7.39
7.394
6.847
7.862
7.302
7.248
7.517
7.41
7.865
7.375
5.572
7.233
7.557
6.81
7.736
7.489
7.52
7.052
7.515
7.838
6.881
6.907
7.85
7.006
7.819
7.172
7.053
7.24
7.157
7.444
7.853
7.494
6.814
6.579
6.209
7.736
7.158
7.42
7.262
7.145
7.5
7.077
6.436
7.08
7.836
7.313
6.165
6.608
7.846
7.833
7.397
6.569
7.334
6.85
6.449
7.847
6.817
7.615
7.261
7.887
6.654
6.916
7.853
7.848
6.48
7.521
7.481
7.73
7.593
7.86
6.44
7.016
6.76
7.863
7.692
7.232
7.852
7.135
6.51
7.168
7.03
7.449
6.503
6.998
7.542
6.878
6.525
7.842
7.804
7.854
6.574
7.803
6.882
7.338
7.86
6.738
7.249
4.842
6.374
5.506
7.472
7.873
7.843
7.007
7.838
7.781
7.442
7.618
6.623
7.032
7.856
6.707
7.853
5.977
7.853
7.253
7.126
7.853
7.841
7.89
7.621
7.354
6.764
6.85
6.804
6.617
7.884
6.679
7.86
7.399
7.455
7.859
7.35
7.83
7.409
7.389
6.33
6.873
6.732
7.836
7.064
7.85
5.763
7.695
7.828
6.672
7.833
5.844
7.84
7.261
7.396
7.415
6.231
7.081
6.948
7.841
7.778
7.754
7.883
7.808
7.292
6.82
7.834
7.705
7.499
7.155
7.864
7.763
6.901
7.546
7.711
7.673
7.223
7.206
7.881
7.359
5.847
7.867
7.67
7.407
5.75
7.835
7.848
6.974
7.691
7.146
7.872
7.869
7.842
7.118
6.511
7.13
6.732
7.755
7.76
7.854
6.5
6.592
6.729
7.803
7.008
7.535
7.715
6.846
7.809
7.86
7.846
7.766
7.087
6.463
7.47
6.712
7.285
6.977
7.84
5.273
7.822
7.549
7.869
7.417
7.803
7.183
7.689
7.817
7.261
7.143
5.233
7.741
7.72
7.568
6.595
6.975
7.745
7.31
6.967
7.866
7.852
6.795
7.456
6.232
6.688
7.864
5.446
5.649
6.104
6.856
7.881
5.908
7.77
6.87
6.976
7.84
7.837
7.601
7.095
6.27
7.864
7.417
7.529
6.888
7.144
7.374
6.277
7.119
7.84
6.905
6.937
7.836
7.694
7.548
7.875
6.161
7.248
7.841
7.587
7.088
7.815
7.9
7.573
7.606
7.378
7.674
7.802
7.873
7.849
7.263
6.907
6.578
6.908
7.774
7.74
6.427
6.976
7.865
5.223
7.746
7.371
7.714
7.836
7.557
7.149
7.439
7.562
7.778
7.102
7.33
6.362
5.734
7.046
7.848
7.734
7.347
7.134
7.847
7.002
7.237
7.462
7.821
7.214
7.039
7.834
7.334
6.355
5.751
7.86
6.862
7.185
7.851
5.759
7.18
7.145
7.518
7.575
7.494
7.063
7.496
7.828
7.813
6.45
5.339
7.484
7.728
7.681
7.828
7.597
5.674
7.361
7.741
6.852
7.787
6.759
7.803
7.851
6.468
7.798
6.988
7.826
7.183
6.863
5.359
6.564
6.988
7.848
7.664
7.609
7.282
7.716
7.009
6.819
7.768
7.563
7.437
7.349
7.718
6.272
5.745
7.393
7.224
7.272
7.483
7.246
6.527
6.544
7.801
7.596
7.023
6.58
6.842
5.394
5.939
7.025
7.831
7.775
7.401
7.711
7.839
6.438
7.742
7.861
7.544
7.448
7.711
7.807
7.844
7.467
7.79
7.241
5.685
6.891
6.562
7.73
7.835
7.171
7.618
7.569
7.001
7.526
7.278
7.017
7.786
6.569
7.823
7.234
7.621
7.678
6.262
7.882
7.87
7.783
7.823
7.337
7.163
7.816
5.908
6.607
7.378
7.677
6.641
6.522
6.737
7.356
7.388
7.757
7.359
7.106
7.671
7.677
7.838
7.471
7.708
6.113
7.407
7.751
5.203
6.134
7.768
7.839
7.13
7.769
7.852
7.838
7.292
7.453
7.818
7.152
6.569
6.839
6.931
7.864
7.253
7.329
7.747
7.831
5.663
7.843
6.721
7.052
7.721
7.869
6.876
7.652
6.903
6.546
7.761
7.828
6.389
7.564
7.834
7.867
7.256
6.024
6.712
7.699
6.716
7.536
7.068
7.44
7.175
7.744
7.163
7.263
7.8
7.73
7.859
6.23
6.663
7.172
7.759
7.813
7.842
7.77
7.053
6.764
7.573
7.772
7.659
7.579
7.825
7.728
6.679
7.781
7.025
4.773
7.22
6.645
7.608
7.842
7.686
7.812
7.207
7.453
7.493
7.829
6.453
7.148
7.433
7.025
6.5
6.299
6.663
7.406
7.688
6.41
7.192
7.696
7.698
6.466
5.924
7.71
7.83
7.314
7.236
7.748
7.641
5.351
7.646
6.936
7.692
7.816
7.652
7.045
7.805
6.503
7.377
7.121
7.625
7.771
7.703
7.528
7.76
6.864
6.596
7.07
7.841
7.534
7.115
6.059