# vtk DataFile Version 3.0
3D scalar data
ASCII
DATASET POLYDATA
POINTS 964 float
-46.95 17.66 -4.697
7.97 -25.42 20.8
30.85 -4.318 38.34
-5.976 -28.1 18.43
-0.9538 36.18 -24.93
12.26 -14.23 -30.66
3.615 27.28 -7.438
-36.97 8.543 -1.86
29.59 -24.33 -24.73
6.269 8.876 16.86
5.597 8.575 -32.17
-1.94 16.48 -14.2
38.85 21.89 -4.598
18.54 41.11 29.25
-41.7 7.903 5.278
-10.06 -28.66 43.75
48.2 1.553 1.233
42.03 -21.44 4.78
-46.07 -10.86 -24.1
-13.56 -38.03 14.63
16.35 7.101 45.08
33.17 36.57 -33.79
3.003 39.98 -13.06
-4.193 29.07 -15.88
-24.09 4.147 1.809
-26.27 -20.2 -21.78
16.13 48.54 32.75
-11.38 -52.84 -9.06
-18.59 10.42 36.22
11.43 4.362 28.47
-21.85 -44.67 -14.28
43.67 -24.16 -9.608
56.34 29.6 -4.69
14.69 -21.64 46.13
50.28 -28.2 20.46
-4.985 21.76 -25.62
-36.51 -27.94 -24.45
6.228 40.45 -37.96
-16.09 9.588 6.522
-9.078 46.06 -27.48
3.92 -3.29 23.08
37.68 0.07848 41.44
15.86 -23.17 46.38
-15.01 -13.48 -24.3
-24.55 -13.35 -34.38
37.65 8.499 16.51
50.13 2.914 -13.35
38.4 23.9 8.771
-30.7 3.529 29.41
-13.12 42.84 21.37
-3.979 53.94 -17.12
33.06 7.723 -25.76
-7.657 -17.56 -5.594
52.69 -17.78 -31.33
51.68 16.88 27.17
-31.86 18.15 7.18
10.96 26.03 37.02
-0.8725 -43.32 -11.57
-24.76 -1.961 22.48
23.59 -12.04 -23.11
41.03 42.64 -20.47
57.5 1.264 13.13
18.97 -43.24 6.529
29.26 -16.18 21.35
6.748 -45.86 -21.67
33.07 -33.29 0.1537
-27.32 16.08 -19.15
-1.56 27.21 7.339
35.7 -15.41 -17.51
-25.78 -29.26 1.375
4.023 5.659 59.26
17.99 3.26 -51.69
36.69 -8.29 28.95
-31.92 4.271 -32.21
-2.858 16.76 -38.15
-9.398 -38.46 32.87
-35.87 -38.37 -14.45
-14.07 37.11 -8.697
6.533 -4.818 9.689
-43.42 -15.43 -5.987
-28.46 14.95 6.347
32.68 45.31 4.707
-13.2 20.98 -14.99
-11.51 -16.62 19.36
21.93 37.51 41.96
39.07 10.23 31.71
25.56 39.57 -14.18
3.264 -2.993 -36.59
30.17 -2.267 -28.96
-6.43 53.68 16.02
8.896 -27.55 34.82
-39.6 35.49 0.5565
12.29 -19.12 -43.9
-32.44 41.42 3.311
1.38 -17.04 13.98
48.76 11.6 23.02
-0.9043 5.41 -8.518
-4.998 -16.16 -15.19
12.64 37.94 -19.85
-46.49 18.1 -18.12
-4.822 -44.05 -34.62
27.46 22.71 -31.51
-18.61 14.67 55.16
-26.62 -17.39 43.79
-20.45 20.94 14.73
15.23 -28.85 -34.83
0.6732 -38.07 41.88
-30.56 14.84 46.03
-7.456 -48.52 9.495
30.62 11.26 -6.977
9.509 33.77 14.17
51.87 -10.87 3.82
-45.27 13.07 18.31
43.51 -13.83 39.4
37.27 -2.094 -17.
13.49 -58.73 -1.249
8.865 -42.71 13.6
15.7 -15.31 9.037
31.98 -46.39 -7.477
25.3 -5.018 42.91
-18.5 -17.22 2.18
23.16 -44.32 -18.32
-19.12 -14.64 -11.39
-13.72 -6.917 27.93
2.454 -20.09 -24.11
-46.54 -1.119 16.22
25.45 -39.23 -13.77
5.74 7.555 -45.58
24.11 -31.63 1.338
-37.96 -18.47 -34.15
24.24 -29.95 32.35
59.53 -11.7 14.36
-9.396 42.08 3.698
53.73 -2.768 -35.01
11.07 11.06 -9.935
-38.06 30.76 -23.74
-42.36 -26.9 22.74
43.06 -3.144 -24.32
-24.48 14.34 -19.49
49.64 24.54 3.503
19.82 -2.616 8.087
-18.82 8.672 15.4
-18.86 3.598 48.02
-1.566 6.278 -44.92
24.56 8.62 11.16
-32.05 3.601 32.47
-44.74 -16.11 -21.43
-28.96 -22.85 -9.837
11.63 29.9 -45.1
-3.418 5.825 5.386
32.45 1.113 -48.17
6.627 41.25 42.66
-17.26 -45.57 -27.87
-9.009 17.48 -50.22
39.31 -44.94 2.737
-15.64 8.502 -7.591
16.15 18.82 -38.18
5.089 33.99 -2.9
40.37 8.731 -39.45
1.033 26.73 19.46
16.74 29.05 3.136
17.76 -37.19 -24.33
-26.65 45.14 15.27
10.23 7.822 3.739
5.59 -18.76 8.251
-27.81 -15.04 14.46
-10.16 -33.2 -8.305
30.11 -28.88 -44.16
8.01 44.04 4.685
27.69 26.33 33.02
28.45 13.03 40.31
-11.27 -3.016 -14.62
-19.47 47.34 -19.24
-9.761 -1.553 -35.84
8.981 56.35 4.799
-23.34 -5.554 38.07
-5.7 -5.653 -46.87
1.048 -18.16 27.96
34.59 -48.57 -9.807
2.272 -27.01 50.88
13.79 15.71 -42.44
-10.84 -24.57 -50.4
29.12 45.25 -9.446
-26.17 33.13 -15.52
4.001 46.5 -24.62
8.958 -7.998 32.84
-7.647 40.13 40.2
-2.412 40.42 19.37
-32.79 7.552 16.15
25.41 34.4 22.68
0.1893 -27.76 -8.379
36.96 17.78 -40.19
-12.4 28.23 44.25
9.571 9.217 -18.59
3.376 -4.235 -15.6
-7.195 -42.84 -18.1
18.37 15.77 -4.579
-40.59 -6.03 4.65
8.182 18.09 55.33
-16.86 29.63 4.921
-12.69 -48.62 22.84
18.18 -10.04 -3.213
-11.19 29.92 17.54
-3.991 30.85 -44.33
26.8 33.31 -1.634
-40.72 24.65 25.16
15.03 5.028 54.35
-30.82 13.09 19.74
-9.341 -49.9 9.602
8.192 -37.06 1.054
43.53 -24.35 5.108
34.25 -15.63 -32.74
39.75 12.65 3.396
62.52 -8.998 -0.6801
-34. -4.952 -3.274
28.2 -37.56 36.16
51.17 18.7 -11.55
43.53 43.22 -6.267
30.19 -16.64 10.63
14.48 -30.06 10.6
46.14 7.482 -17.12
16.99 -33.47 23.5
58.52 -22.91 3.366
-5.915 -11.75 7.715
-2.742 -41.24 20.
24.64 -29.65 -31.91
-32.1 -23. -11.27
39.41 0.2793 44.79
-26.27 -35.7 -5.894
-33.94 -16.02 -30.88
16.28 -34.01 23.54
13.67 -50.41 -24.32
14.46 -20.31 32.47
-43.06 -17.05 12.78
33.21 -37.5 -25.61
31.53 -19.51 -2.757
-7.865 -17.67 51.07
-4.386 -6.804 33.81
-8.299 -15.7 -32.76
3.356 -4.906 -36.56
-21.48 19.85 -44.84
-23.07 -0.943 -36.37
-20.55 2.021 -24.18
-33.4 -24.97 32.29
38.28 32.55 0.3584
1.542 18.88 -51.13
26.43 -43. 26.79
29.82 -24.95 9.693
13.15 -24.99 -11.56
-21.88 49.75 12.89
-26.48 -38.92 8.454
7.573 34.4 26.61
18.42 23.39 41.92
-16.53 10.4 -35.12
48.15 19.3 -32.7
-31.85 9.026 -25.16
59.63 14.33 15.35
3.055 -32.87 -22.85
50.75 10.51 -29.55
53.17 -25.51 15.17
-43.03 17.08 -28.79
-21.08 25.22 -27.81
-7.379 16.81 15.75
31.09 -3.916 15.83
-11.51 32.78 -6.905
-19.2 -27.04 12.2
9.86 -12.77 19.56
38.34 -12.69 -25.55
-19.92 32.03 -35.33
52.41 -18.55 -19.36
48.15 -6.428 36.18
24.88 19.19 9.716
-38.57 11.81 -14.27
-6.571 8.747 42.96
-18.45 13.23 25.21
-16.32 16.59 49.09
-42.26 -0.6089 -10.79
-15.28 -4.491 26.69
19.41 -5.38 -37.17
-44.82 -13.6 25.16
59.44 7.557 -12.03
-13.9 4.909 -47.64
22.4 -29.06 -46.16
15.28 -36.99 -6.253
20.84 -8.79 -51.22
-48.27 -4.26 2.968
48.32 25.18 16.98
-10.58 -30.71 -23.3
14.11 25.83 40.1
12.65 8.826 6.486
13.87 20.47 -0.5224
6.341 12.73 37.55
6.377 23.08 -18.39
3.757 41.38 8.858
-15.1 -37.6 5.219
43.07 -8.847 -41.64
15.16 19.76 13.19
7.208 -4.908 -49.15
-8.105 31.54 -33.86
-40.86 -29.39 6.024
-22.16 -47.07 -16.33
5.722 7.642 17.73
16.4 -0.3405 17.9
-22.82 3.702 -16.27
-33.09 26.4 36.95
-21.97 14.98 -6.21
-20.88 42.98 1.085
-32.32 18.48 7.242
-12.43 33.38 -20.98
26.33 19.71 21.33
-16.91 -20.28 -44.38
9.095 48.83 -25.35
-8.41 0.9328 16.73
-18.97 -25.19 33.6
47.91 37.63 7.592
-8.283 -29.1 -37.12
26.59 0.6627 50.44
-37.03 30.61 1.667
-20.2 -24.07 -31.5
-29.44 15.32 -5.719
15.04 27.23 16.9
-1.099 -3.626 -23.48
-19.66 45.2 -18.02
14.23 -32.91 -46.49
6.693 47.28 -10.35
-14.09 51.9 -6.954
14.23 44.49 -21.12
-24.9 -15.77 25.83
-1.665 -37.8 2.039
60.23 -6.343 -20.
35.26 41.9 18.01
-11.71 -28.12 1.191
40.93 28.42 -26.89
36.07 14.05 16.42
-6.661 -26.45 40.09
44.75 20.15 -16.88
-10.95 1.506 58.36
14.62 29.69 51.48
27.65 4.841 25.52
40.74 -35.32 -4.077
-1.804 30.32 -28.89
23.17 7.745 -15.78
26.75 -18.39 38.62
9.594 -14.56 -16.8
18.53 4.74 -27.45
11.35 -16.03 -41.72
-6.895 -3.608 15.96
37.77 29.5 24.
23.11 15.56 -17.82
22.83 -7.946 29.14
24.62 51.24 15.17
-43.07 30.06 -11.72
-9.607 -1.467 -31.92
3.427 -16.64 41.65
5.817 -9.358 -51.89
6.926 25.92 -20.42
0.1468 28.74 42.39
26.18 -6.803 -24.7
-11.76 -35.42 27.29
-17.54 -25.85 -8.609
4.953 16.56 28.52
-10.92 54.93 -11.31
-3.256 6.438 29.07
-1.907 -5.196 49.26
13.26 51.64 11.88
2.022 16.72 -26.57
29.55 -6.337 -8.221
27.58 8.352 40.04
15.36 37.92 15.61
12.53 -3.035 -26.16
26.98 9.734 -36.06
2.542 -54.24 16.88
-20.54 37.28 24.65
12.37 -11.48 -0.4495
-14.14 -15.55 38.06
-23.91 29.71 -1.742
-13.06 -42.36 36.05
-1.403 53.39 13.54
5.452 -56.27 -12.96
5.835 16.84 46.74
-30.32 1.455 10.14
29.17 -28.05 28.43
15.17 43.28 -6.989
-8.617 -49.25 23.66
-11.05 29.67 18.44
41.32 -11.3 -5.786
10.93 35.24 -31.07
-7.692 -4.716 -10.16
18.65 27.62 -12.73
57.3 0.8807 24.8
-34.82 23.52 -8.642
-29.79 -35.27 13.17
-7.196 18.17 35.59
-22.09 -20.08 47.22
-24.08 24.75 25.07
42.8 -10.61 8.621
45.15 0.7304 0.3041
5.948 -22.69 2.632
-31.91 -9.464 -9.243
52.93 -33.16 2.301
-37.7 35.34 14.6
20.73 2.994 -3.011
-24.42 -31.96 -18.95
10.12 -38.83 18.78
-6.001 19.87 52.66
-42.63 10.79 25.29
22.77 54.16 0.7747
-31.09 5.489 42.76
61.08 13.61 0.9979
0.9344 42.2 -35.63
23.61 -18.24 -36.3
47.3 40.34 -6.627
37.35 -8.457 4.192
13.53 -57.11 7.497
-20.12 -4.433 -4.288
27.26 -16.52 35.99
12.74 -47.19 -9.358
15.37 -24.33 13.43
35.58 46.73 3.9
10.9 -34.87 -1.156
28.48 -33.18 14.48
-16.62 -22.24 -13.87
-9.463 -53.6 -4.233
36.67 -14.82 -19.86
34.95 8.68 -8.729
-30.93 -21.6 11.74
48.33 -11.96 -15.3
-34.63 -18.08 1.309
12.23 -7.299 46.73
27.59 -53.85 2.191
25.39 -2.73 49.16
-5.042 -15.58 0.9868
49.9 -17.78 27.32
42.09 -25.94 -25.22
-2.673 -27.5 -34.13
46.82 -38.66 12.
-24.68 4.976 -46.44
52.98 12.6 9.475
-14.57 -9.009 48.83
-34.66 -38.63 20.13
12.58 -33.51 -13.1
16.45 -23.47 -5.201
-38.85 -3.709 35.18
28.73 5.936 52.16
4.689 -23.09 -51.2
22.72 -42.98 -32.61
16.26 -3.769 -39.52
40.11 13.27 3.073
-23.84 -30.98 40.13
-36.01 -2.605 -20.63
26.32 -28.16 -11.84
-14.18 15.47 4.185
-12.35 -12.98 -26.74
4.941 34.64 29.27
-12.61 11.6 -36.8
20.46 -20.12 21.23
16.06 -30.32 46.31
-4.91 -7.161 32.64
-41.75 -4.065 -34.67
27.07 11.97 -40.3
41.39 25.08 35.48
-26.28 -8.592 -20.95
-27.59 -38.52 32.04
32.67 -39.57 12.65
32.14 27.13 -16.3
20.37 -26.45 0.1649
-10.71 18.34 -49.02
-38.62 -30.54 -3.049
16.24 -49.44 25.79
-22.52 27.74 -12.71
33.07 16.95 -26.13
-8.203 31.1 28.07
-6.301 14.35 17.3
0.4638 -10.67 -35.58
54.83 29.88 -2.477
13.27 -40.51 36.6
41.22 -32.8 10.14
40.06 -22.27 18.35
42.09 2.119 13.51
-6.849 8.96 -23.89
26.71 15.8 -48.22
36.22 -29.05 -35.59
-22.23 -25.88 21.1
-2.258 -5.851 21.72
-11.16 22.62 -7.025
0.5198 29.9 49.86
37.56 -9.802 27.57
-18.55 -9.345 -51.
-32.12 23.75 -37.02
34.59 -47.28 15.43
-48.42 3.49 -22.56
33.44 -13.77 -45.77
15.89 -23.7 -22.61
46.2 -0.8663 -30.83
-18.18 9.109 21.37
28.36 22.91 49.74
-26.76 38.27 -29.05
35.15 28.5 13.42
56.74 -26.11 -12.74
-35.98 -2.285 -18.06
-12.74 29.47 49.11
-2.668 19.81 -38.55
-20.97 7.31 40.46
-34.24 -41.28 -9.721
-1.438 51.7 11.23
-17.45 9.595 -31.82
3.686 -23.64 -34.15
-14.44 -25.59 -19.51
15.47 13.84 19.87
58.2 6.471 -25.08
-50.77 6.681 -6.074
-30.48 19.12 -34.36
25.88 -30.39 -15.07
-28.24 3.662 -12.16
29.12 18.5 35.84
-16.24 -42.46 0.7789
7.093 26.08 -34.07
-29.66 -8.603 30.75
-15.36 15.15 -19.82
-2.048 30.57 6.773
2.813 4.527 -32.67
-38.79 -13.77 25.55
25.19 25.16 -7.656
42.02 -9.106 23.21
35.58 15.9 19.46
12.53 31.09 3.62
23.15 -10.19 -37.75
-49.32 -9.922 -9.004
14.29 2.748 0.8831
-13.31 -4.087 -18.57
-5.864 44.19 -16.07
60.85 -13.23 -8.511
36.22 -35.08 -7.221
-20.68 39.81 -4.437
-14.99 22.16 -41.82
-28.32 3.464 28.91
-7.102 17.08 38.49
3.82 2.786 39.92
-19.24 8.584 14.55
-9.8 9.424 -7.425
-31.32 -2.071 44.76
-36.49 24.64 -10.91
29.97 -0.643 -44.27
28.42 20.15 4.314
57.66 18.81 -21.88
4.944 19.62 10.62
-28.49 31.18 12.96
43.62 5.908 -40.57
21.07 -19.51 -50.3
2.047 -40.51 -10.34
-33.02 22.02 -21.05
17.95 15.06 31.57
-42.53 -17.09 -3.298
62.49 3.578 -8.957
14.48 27.17 25.46
21.67 15.07 55.94
-45. -25.72 -14.22
18.62 5.369 -51.33
33.22 -2.696 -35.28
0.8508 16.96 -1.731
-29.59 -38.48 -26.75
3.947 28.11 -5.855
-16.66 46.54 27.38
-18.63 -4.529 10.88
-10.59 42.05 8.155
26.32 48.02 -24.45
-7.829 -25.49 7.583
26.85 30.63 19.54
-13.48 33.94 -21.63
-28.19 -27.95 -36.43
31.84 4.232 28.71
-48.19 -17.87 7.123
-39.81 7.304 1.881
15.54 20.72 -24.52
3.499 22.71 7.831
49.7 -15.47 -18.47
38.13 32.94 -13.94
-14.26 -33.47 -40.11
-0.5994 -6.671 -22.7
2.092 -27.26 -3.087
-0.1598 -19.53 27.97
-37.67 7.958 -0.6005
26.72 45.75 1.482
23.51 47.51 22.1
-37.42 0.9454 16.87
-11.17 -16.09 -40.27
-3.612 -41.29 -31.74
-6.48 -52.03 -21.93
5.509 -3.859 9.781
-18.86 -7.209 -47.26
-5.089 -10.51 -52.88
21.9 33.93 -39.51
23.93 4.737 -17.1
8.963 -40.72 -34.66
-17.19 -36.44 -37.93
18.75 -6.511 23.52
-12.52 -15.84 23.67
30.15 -3.546 17.05
-30.63 37.02 26.44
-9.458 9.537 -21.23
-13.94 -15.62 16.76
31.69 5.122 5.153
24.71 -10.02 -24.78
1.575 21.81 25.13
3.812 -2.151 36.82
2.987 4.517 -54.17
-34.94 -6.836 21.29
16.58 -2.567 -15.19
45.91 31.81 22.01
-23.66 -26.82 -31.95
36.68 39.89 -19.97
1.319 6.132 54.34
38.34 -22.9 29.92
19.44 11.2 -28.84
37.52 -38.59 -18.62
-4.972 43.53 -0.7273
-24.71 49.59 -4.733
-6.337 6.14 28.53
11.87 -2.913 -11.97
5.237 55.37 -13.38
37.09 42.79 17.87
20.25 24.7 -35.52
-12.85 40.9 -32.11
-0.244 -15.94 14.3
-27.93 34.16 -15.1
-12.64 8.445 -7.631
-9.189 -29.71 23.7
10.38 54.65 19.96
3.371 -5.654 -0.6894
53.83 -0.04308 26.8
1.854 -30.96 12.37
30.82 17.42 22.15
-1.873 6.42 6.516
10.11 16.59 -12.35
-1.541 -19.58 -45.4
-32.52 37.87 -9.758
-2.278 -20.33 -21.55
6.686 -16.71 55.23
47.53 -31.2 -25.11
-39.86 21.15 4.07
3.193 18.54 26.24
-10.28 -2.583 -36.66
-20.99 -4.258 20.32
44.47 20.83 -19.2
26.21 27.22 33.24
21.09 39.51 11.26
9.843 -42.93 -37.08
16.82 28.78 -10.64
48.05 8.402 36.44
20.31 -7.12 27.47
-1.704 39.39 -13.94
-6.822 0.8085 3.072
9.472 47.48 20.43
29.84 -4.082 -10.7
41.17 -42.86 -17.38
30.99 -24.56 43.
9.862 29.08 -44.83
-4.07 -21.43 30.98
37.34 9.064 -27.53
12.25 55.79 -1.348
10.39 -26.91 33.97
-10.87 -30.9 45.9
32.41 39.6 31.5
18.89 37.34 33.97
19.14 53.4 -15.37
4.383 -31.92 44.59
-0.9286 48.67 -2.821
10.44 -9.085 -53.03
19.57 43.38 4.634
-4.732 -29.82 -10.9
-35.33 -14.48 39.01
16.09 -10.03 -4.351
41.85 20.94 30.86
4.617 -15.13 -11.
-47.29 21.38 -2.738
-32.43 40.64 -13.27
28.39 32.98 9.901
-8.178 37.26 33.46
40.12 -35.35 23.52
2.39 27.27 37.88
5.546 -47.26 27.26
-45.8 -4.17 -13.54
7.809 8.249 -19.58
22.45 -15.44 -15.45
-18.31 -16.4 4.598
-9.741 -47.08 -4.542
-20.23 22.41 37.3
11.05 -9.695 -26.41
2.204 6.416 -6.972
17.25 2.547 37.03
24.89 5.758 25.97
-22.24 26.14 1.283
28.72 -30.39 17.11
-21.03 36.81 10.58
49.26 -23.59 -6.919
20.02 7.814 17.96
2.386 -33.6 28.
-22.77 -48.65 -1.284
-1.274 49.31 29.2
27.17 29.1 -23.54
3.219 -33.77 29.52
6.515 -5.117 50.35
20.27 2.677 37.65
23.54 34.3 -25.14
-23.23 -35.12 24.58
-11.84 21.91 -28.71
-25.19 -14.09 29.54
34.81 24.56 -37.28
28.37 31.81 -3.424
-23.36 -46.7 12.45
7.04 17.79 48.68
-8.98 29.01 9.805
-1.867 56.24 -1.371
5.785 12.84 -30.47
54.9 -11.23 17.97
5.176 16.07 45.51
42.09 -12.36 16.27
15.78 40.51 -6.458
-2.885 40.8 19.91
62.97 2.268 8.217
-14.79 -39.3 -13.51
-27.64 -7.323 9.298
51.82 -6.864 -9.031
-0.287 -14.26 42.66
-37.38 20.57 10.97
-12.37 54.89 3.316
-38.56 -9.691 7.977
40.7 2.117 -4.671
-4.455 -3.922 -9.882
-11.45 18.24 27.81
-40.88 11.82 -15.64
60.86 16.69 -0.5174
-10.98 29.26 20.13
2.513 -56.27 -12.16
-21.35 36.12 38.3
30.74 -5.922 1.487
-2.146 -36.15 7.603
51.78 -20.74 -5.333
31.6 2.397 3.295
-48.74 10.73 7.524
18.97 54.64 -13.02
1.613 -47.29 31.34
8.166 35.3 -17.26
48.21 14.5 9.421
-20.13 -4.435 -2.567
57.04 -9.504 4.276
-11.21 -51.88 9.115
-24.27 24.97 16.5
50.69 -11.51 4.433
25.02 -19.2 -35.93
-5.527 -26.22 36.89
8.711 -48.53 -2.023
3.038 -50.06 -0.02076
-5.18 16.28 55.18
-21.97 26.36 28.56
32.43 50.2 -10.57
-37.5 24.28 22.66
-33.17 20.79 -6.836
44.53 31.44 -12.72
-45.85 24.44 10.58
-9.393 0.03353 2.523
-25.76 -10.14 -15.49
6.445 -46.17 11.58
-31.77 16.66 32.49
33.8 -43.6 6.343
28.12 -47.31 -24.06
-9.225 -17.97 54.18
-45.11 11.84 20.81
23.41 12.35 -2.784
14.19 6.082 48.69
27.27 -16.12 35.05
-5.756 -16.03 -2.287
-13.4 -4.922 -1.401
-39.85 11.67 35.69
14.64 -36.77 22.57
-34.43 -25.65 20.01
39.15 -13.65 -29.14
14.49 23.79 -25.09
16.58 -55.31 12.4
21.65 -16.18 51.45
44.44 31.58 -27.8
-41.1 -12.47 11.95
-27.14 -15.81 0.09473
16.23 -4.011 57.79
15.96 -26.87 11.69
-19.39 -7.791 52.18
48.21 13.73 -4.878
43.38 36.01 7.53
-33.74 -4.54 -2.484
3.278 -26.55 -20.89
20.82 -54.31 -12.56
-18.63 -13.82 -10.99
12.83 -7.248 45.74
24.06 -14.49 9.35
42.82 -29.01 -17.9
0.2473 -56.5 2.271
21.43 -41.43 11.96
-22.4 -17.76 1.57
-24.27 -34.5 -23.12
19.4 -45.45 3.425
50.08 -2.222 -12.21
52.67 31.22 -18.69
5.733 40.19 36.63
53.05 2.495 0.2338
-32.45 -26.53 30.1
30.88 -21.06 -6.115
-33.08 7.353 -40.51
41.37 16.81 -2.196
38.96 -36.76 24.79
53.14 -19.96 13.74
-1.012 -35.31 -45.06
-6.039 33.14 -41.72
-34.38 -41.51 4.327
-21.76 -9.933 -34.03
11.14 -27.17 -32.7
52.53 -14.75 26.41
15.75 -10.1 40.81
41.73 -26.27 34.09
50.13 -1.102 13.51
36.37 11.13 -13.58
15.83 -23.36 -25.2
1.735 18.62 4.699
30.47 27.32 46.18
15.39 2.07 -39.1
-11.61 16.82 4.421
40.97 -23.99 -11.64
34.04 -11.68 48.19
36.62 -36.87 -32.29
-44.74 -0.4627 28.76
12.79 17.23 -51.66
22.64 -49.27 0.838
-50.05 -2.612 10.13
41.1 -21.81 3.479
-7.545 11.78 -36.75
19.62 -29.08 43.99
36.68 -2.155 -16.85
4.931 -5.657 23.38
24.02 -39.19 -36.85
39.71 -13.91 40.98
34.15 34.47 -3.754
49.65 15.84 -32.5
29.48 -26.57 -19.51
-34.98 -4.124 -29.58
-18.52 28.68 -40.99
-30.78 -14.86 -32.54
38.66 14.86 44.73
-24.49 -35.26 -4.606
-27.44 -29.46 1.157
12.86 -35.24 -16.12
-9.823 -2.878 40.2
28.34 -28.22 -17.63
-2.905 -6.772 58.38
0.7397 29.59 45.85
25.52 -18.03 -2.099
-0.8716 -11.07 -0.05729
-24.73 -21.35 -44.26
50.62 12.45 9.241
-31.77 8.959 -25.72
-42.24 -30.75 9.739
26.93 -34.53 0.2291
15.57 -19.96 28.69
-11.66 4.358 -53.39
-13.89 -40. 35.55
43.47 -22.9 -38.36
4.864 40.59 31.81
-23.51 15.06 -46.05
-19.86 -27.81 35.7
-16.67 3.459 -47.07
46.12 0.7848 14.72
-18.07 3.273 34.76
6.705 -50.87 -25.55
48.97 10.02 22.35
-38.52 -14.98 -19.25
-32.61 -6.444 -43.04
-10.1 -0.6613 39.16
2.127 -8.819 -37.24
-33.47 -25.02 -11.18
40.03 0.1022 27.31
25.87 -51.39 15.3
-13.41 -12.33 -23.59
-8.67 23.52 -4.23
31.92 23.58 -13.57
38.73 21.86 -4.907
50.75 27.32 -1.101
-9.522 31.15 31.79
17.82 -20.52 26.03
-22.28 26.73 -13.59
32.95 -25.46 -43.25
9.224 39.3 42.97
-6.194 14.2 16.45
27.36 -41.89 24.98
56.37 25.85 10.39
16.05 -50.53 21.75
49.19 -37.66 -10.03
-20.4 12.01 36.93
18.56 42.05 -35.29
34.81 -43.46 13.83
-41.93 -30.87 -2.129
-25.83 -4.517 -23.71
20.35 -11.38 10.65
24.41 7.437 -38.86
-24.9 -8.481 -47.53
-1.061 39.04 17.23
-19.95 -27.77 19.01
-35.12 27.02 -24.44
-4.718 6.089 -20.99
-21.36 -44.96 24.32
38.97 -22.31 19.42
28.88 -23.03 10.14
37.31 14.48 -27.01
-24.11 5.594 53.82
-45.3 5.085 -26.56
-17.73 16.93 49.58
15.14 -39.81 35.76
-9.076 31.7 -5.005
4.339 -29.28 -37.45
-37.71 8.611 -38.71
-24.61 19.46 -31.9
-25.65 48.01 0.6387
14.67 -23.33 -7.18
52.37 -10.97 -31.13
-6.467 44.29 -14.77
47.96 -3.054 -25.6
21.27 17.61 50.34
-17.54 0.2762 -25.16
25.23 24.1 -46.22
26.66 15.21 35.15
-9.914 -26.01 -23.3
-43.96 -1.398 -8.487
-11.61 -33.29 -25.82
-15.15 -39.86 2.695
35.66 -32.85 -2.125
-14.05 -2.564 -15.38
18.97 -23.53 -0.4306
23.03 -13.05 -38.3
43.75 -0.7383 -28.37
14.31 16.64 -40.57
23.89 -41.31 -10.03
-12.12 3.988 51.88
-23.03 25.84 48.41
1.792 19.06 -41.68
50.67 9.994 -23.74
3.631 5.717 19.23
-32.59 9.074 -27.11
59.53 18.28 -14.54
-30.81 18.87 -6.478
12.49 20.66 17.09
-24.3 -39.71 11.71
-2.837 20.48 -38.56
-20.85 11.72 -33.5
42.1 -43.96 0.8058
-1.083 -12.27 -33.31
17.52 20.14 42.87
15.02 20.54 1.472
61.93 1.288 -6.797
-18.78 -44.74 -0.5508
-40.71 9.498 -14.3
46.4 21.86 16.26
-26.14 -10.25 32.67
28.66 -2.291 52.05
4.196 28.63 -33.74
-17.2 24.49 -41.15
-24.57 36.56 -27.64
-37.06 -0.7184 -20.76
POINT_DATA 964
SCALARS radius float
LOOKUP_TABLE default
7.804
5.958
6.193
7.844
6.168
7.08
7.195
7.413
7.648
7.449
7.684
5.98
7.628
7.877
7.889
7.635
7.65
7.64
7.431
6.768
7.828
7.873
7.732
6.055
7.687
6.273
7.863
7.711
7.651
6.267
7.425
7.645
7.634
7.653
7.628
7.122
7.851
7.567
7.772
7.82
7.558
7.804
7.783
7.624
7.931
7.889
7.912
6.338
7.906
7.168
7.835
7.882
6.913
7.874
7.564
7.735
7.819
7.86
7.846
7.787
7.606
7.584
7.677
6.98
7.423
7.917
7.909
7.631
7.505
7.603
7.558
7.864
7.677
7.571
7.408
7.464
7.883
6.899
7.737
7.865
7.31
7.865
7.801
7.881
7.788
7.754
7.923
7.234
6.908
7.836
7.754
7.845
7.549
7.813
7.81
7.893
7.72
7.822
7.675
7.662
7.861
7.746
7.51
7.819
7.682
7.69
7.696
7.63
7.609
7.62
7.872
7.759
7.718
7.579
7.582
7.641
7.662
7.525
7.67
7.627
7.575
7.671
7.619
7.156
7.592
7.537
7.4
7.328
7.673
7.587
7.063
7.085
7.835
7.616
7.862
7.52
7.591
7.437
7.899
7.639
7.515
7.89
7.303
7.857
7.638
7.902
7.826
6.849
7.776
7.762
7.876
7.567
7.861
7.827
7.148
7.784
7.378
7.841
7.848
6.18
7.882
7.834
7.838
7.809
7.104
7.78
7.877
7.509
7.795
7.878
7.906
7.585
7.87
7.475
7.641
7.47
6.879
7.88
7.847
7.778
7.89
7.879
7.886
7.899
7.072
7.462
7.806
7.716
7.849
6.983
7.8
7.645
7.213
7.85
7.692
7.59
7.856
7.719
7.634
7.692
7.704
7.687
7.749
7.607
7.777
7.671
7.607
7.214
7.634
7.702
7.731
7.011
7.646
7.593
7.853
7.78
7.645
7.613
7.604
7.346
7.643
7.615
7.601
7.544
7.293
7.547
7.641
7.608
7.613
7.605
7.909
7.588
7.689
7.611
7.59
7.621
7.653
7.651
7.346
7.584
7.62
6.78
7.521
7.625
7.59
7.57
7.585
7.585
7.633
7.89
7.255
7.664
7.323
7.936
7.613
7.451
7.479
7.7
7.373
7.848
7.608
7.873
7.596
7.866
7.584
6.985
7.017
7.515
7.51
7.787
7.541
7.712
7.09
7.878
7.88
7.622
7.602
7.869
7.906
7.842
7.898
7.47
7.847
7.517
7.882
7.313
7.325
7.615
7.873
7.767
7.328
7.892
7.863
7.638
7.586
7.86
7.405
7.522
7.615
7.83
7.863
7.842
7.832
7.863
7.857
7.637
7.594
7.905
7.633
7.871
7.832
7.885
7.53
7.889
7.841
7.861
6.955
7.497
7.882
7.343
7.872
7.849
7.702
7.863
7.806
7.846
7.83
7.862
7.796
7.851
7.8
7.883
7.865
7.914
7.859
7.866
7.83
7.798
7.804
7.874
7.72
7.823
7.883
7.657
7.146
7.109
7.349
7.824
7.866
7.885
7.848
7.596
7.214
7.847
7.841
7.852
7.88
7.909
7.736
7.394
7.831
7.655
7.19
7.819
7.818
7.745
7.823
7.75
7.82
7.744
7.296
7.753
7.706
7.237
7.724
7.821
7.519
7.657
7.67
7.588
7.686
7.847
7.635
7.651
7.739
7.718
7.781
7.622
7.646
7.671
7.681
7.731
7.692
7.715
7.694
7.675
7.7
7.23
7.728
7.649
7.635
7.631
7.642
7.362
7.661
7.619
7.62
7.588
7.614
7.66
7.714
7.676
7.683
7.624
7.628
7.694
7.634
7.671
7.619
7.263
7.692
7.676
7.572
7.664
7.638
7.659
7.676
7.698
7.672
7.553
7.665
7.58
7.61
7.604
7.634
7.562
7.565
7.608
7.637
7.591
7.598
7.543
7.579
7.564
7.62
7.599
7.68
7.65
7.615
7.614
7.62
7.597
7.638
7.652
7.647
7.623
7.621
7.667
7.559
7.653
7.606
7.61
7.545
7.617
7.646
7.475
7.626
7.608
7.557
7.662
7.615
7.59
7.561
7.286
7.543
7.616
6.563
7.675
7.632
7.62
7.576
7.504
7.645
7.453
7.608
7.506
7.905
7.583
7.89
7.615
7.597
7.589
7.874
7.619
7.602
7.511
6.64
7.923
7.584
6.438
7.374
7.509
7.614
7.871
7.767
7.146
7.593
7.595
7.866
7.857
7.867
7.58
7.888
7.879
7.623
7.321
6.686
5.589
7.872
7.881
7.9
7.88
7.873
7.911
7.883
7.885
7.551
7.88
7.819
7.405
7.593
7.875
7.56
7.873
7.063
7.922
7.927
7.906
7.811
7.762
7.84
7.855
7.348
7.851
7.312
7.804
7.911
7.827
7.855
7.311
7.91
7.881
7.878
7.189
7.893
7.851
7.845
7.837
7.91
7.853
7.813
7.894
7.84
7.482
7.922
7.842
7.848
7.887
7.912
7.83
7.885
7.842
7.905
7.89
7.825
7.865
7.887
7.85
7.861
7.867
7.879
7.873
7.88
7.447
7.899
7.888
7.881
7.842
7.804
7.841
7.813
7.831
7.857
7.87
7.838
7.835
7.875
7.908
7.837
7.884
7.85
7.651
7.838
7.905
7.879
7.888
7.949
7.84
7.875
7.863
7.827
7.842
7.892
7.902
7.886
7.892
7.839
7.896
7.847
7.851
7.876
7.431
7.855
7.706
7.886
7.822
7.868
7.807
7.761
7.807
7.869
7.819
7.417
7.79
7.837
7.418
7.421
7.805
7.763
7.836
7.857
7.841
7.863
7.858
7.857
7.881
7.784
7.843
7.801
7.803
7.951
7.794
7.917
7.831
7.763
7.826
7.776
7.806
7.818
7.746
7.889
7.874
7.791
7.779
7.751
7.828
7.833
7.706
7.845
7.828
7.781
7.803
7.767
7.723
7.75
7.784
7.857
7.794
7.786
7.74
7.798
7.84
7.789
7.783
7.751
7.751
7.786
7.683
7.748
7.775
7.672
7.739
7.764
7.867
7.84
7.603
7.772
7.68
7.736
7.839
7.708
7.595
7.688
7.725
7.784
7.693
7.733
7.63
7.723
7.718
7.753
7.728
7.656
7.593
7.774
7.721
7.748
7.857
7.752
7.67
7.826
7.677
7.714
7.725
7.692
7.614
7.685
7.565
7.451
7.475
7.677
7.757
7.644
7.624
7.634
7.727
7.704
7.664
7.643
7.614
7.648
7.616
7.717
7.699
7.636
7.684
7.651
7.646
7.654
7.687
7.673
7.682
7.703
7.63
7.692
7.632
7.639
7.675
7.611
7.553
7.583
7.666
7.684
7.646
7.607
7.616
7.604
7.616
7.622
7.615
7.658
7.554
7.587
7.654
7.667
7.646
7.661
7.67
7.595
7.578
7.612
7.607
7.613
7.593
7.639
7.61
7.672
7.652
7.625
7.648
7.584
7.603
7.623
7.66
7.67
7.635
7.624
7.671
7.67
7.66
7.634
7.542
7.589
7.664
7.54
7.647
7.65
7.618
7.592
7.588
7.565
7.608
7.621
7.663
7.652
7.568
7.607
7.604
7.652
7.647
7.672
7.584
7.569
7.593
7.52
7.69
7.569
7.603
7.615
7.569
7.651
7.605
7.605
7.618
7.577
7.653
7.593
7.589
7.591
7.705
7.572
7.652
7.659
7.567
7.614
7.598
7.649
7.618
7.676
7.599
7.62
7.582
7.646
7.602
7.556
7.525
7.687
7.629
7.606
7.629
7.601
7.551
7.577
7.604
7.629
7.504
7.6
7.603
7.586
7.624
7.579
7.624
7.675
7.654
7.561
7.647
7.666
7.612
7.497
7.603
7.564
7.587
7.64
7.564
7.644
7.584
7.614
7.635
7.533
7.578
7.545
7.599
7.597
7.594
7.569
7.605
7.571
7.584
7.653
7.65
7.611
7.561
7.624
7.551
7.598
7.586
7.583
7.56
7.594
7.595
7.623
7.471
7.491
7.509
7.611
7.642
7.507
7.642
7.568
7.521
7.528
7.558
7.596
7.625
7.602
7.517
7.533
7.548
7.531
7.51
7.535
7.51
7.431
7.596
7.508
7.574
7.627
7.613
7.561
7.445
7.441
7.433
7.291
7.44
7.371
7.497
7.298
7.49
7.326
7.494
7.365
7.186
7.082
6.979
6.987
6.824
6.808
6.121
7.534
6.601
6.694
6.126
6.075
6.358
SCALARS O2 float
LOOKUP_TABLE default
6.947e-6
6.254e-6
6.644e-6
6.237e-6
6.573e-6
6.273e-6
6.104e-6
6.512e-6
6.361e-6
5.907e-6
6.233e-6
6.048e-6
6.306e-6
6.969e-6
6.642e-6
6.8e-6
6.427e-6
6.359e-6
6.972e-6
6.558e-6
6.58e-6
6.97e-6
6.434e-6
6.319e-6
6.127e-6
6.486e-6
6.981e-6
6.966e-6
6.394e-6
6.153e-6
6.967e-6
6.501e-6
6.976e-6
6.863e-6
6.968e-6
6.344e-6
6.965e-6
6.976e-6
6.011e-6
6.974e-6
6.021e-6
6.812e-6
6.953e-6
6.164e-6
6.538e-6
6.28e-6
6.563e-6
6.457e-6
6.518e-6
6.631e-6
6.963e-6
6.361e-6
6.052e-6
6.981e-6
6.951e-6
6.441e-6
6.517e-6
6.531e-6
6.326e-6
6.151e-6
6.98e-6
6.962e-6
6.523e-6
6.262e-6
6.822e-6
6.412e-6
6.38e-6
6.005e-6
6.324e-6
6.415e-6
6.978e-6
6.973e-6
6.444e-6
6.593e-6
6.487e-6
6.822e-6
6.975e-6
6.449e-6
5.908e-6
6.963e-6
6.374e-6
6.952e-6
6.231e-6
6.133e-6
6.985e-6
6.58e-6
6.506e-6
6.305e-6
6.376e-6
6.97e-6
6.506e-6
6.978e-6
6.704e-6
6.968e-6
6.026e-6
6.658e-6
5.861e-6
6.031e-6
6.459e-6
6.96e-6
6.97e-6
6.544e-6
6.953e-6
6.968e-6
6.226e-6
6.491e-6
6.97e-6
6.975e-6
6.723e-6
6.091e-6
6.225e-6
6.688e-6
6.974e-6
6.985e-6
6.235e-6
6.969e-6
6.553e-6
5.972e-6
6.75e-6
6.671e-6
6.1e-6
6.627e-6
6.113e-6
6.239e-6
6.154e-6
6.962e-6
6.461e-6
6.683e-6
6.243e-6
6.959e-6
6.655e-6
6.991e-6
6.429e-6
6.963e-6
5.897e-6
6.972e-6
6.978e-6
6.461e-6
6.314e-6
6.698e-6
5.969e-6
6.135e-6
6.693e-6
6.607e-6
6.036e-6
6.596e-6
6.976e-6
6.484e-6
6.967e-6
5.868e-6
6.953e-6
6.981e-6
6.979e-6
6.961e-6
6.964e-6
6.012e-6
6.525e-6
6.172e-6
6.957e-6
6.162e-6
6.082e-6
6.513e-6
6.971e-6
5.829e-6
6.032e-6
6.378e-6
6.268e-6
6.982e-6
6.478e-6
6.911e-6
6.612e-6
5.988e-6
6.979e-6
6.386e-6
6.973e-6
6.565e-6
6.723e-6
6.199e-6
6.949e-6
6.975e-6
6.597e-6
6.973e-6
6.699e-6
6.553e-6
6.962e-6
6.253e-6
6.958e-6
6.428e-6
6.458e-6
6.643e-6
6.11e-6
6.972e-6
6.827e-6
5.974e-6
5.936e-6
6.629e-6
5.939e-6
6.682e-6
6.969e-6
6.258e-6
6.975e-6
5.897e-6
6.218e-6
6.965e-6
6.329e-6
6.971e-6
6.967e-6
6.469e-6
6.797e-6
6.277e-6
6.417e-6
6.515e-6
6.278e-6
6.977e-6
6.417e-6
6.967e-6
6.618e-6
6.975e-6
6.139e-6
6.187e-6
6.532e-6
6.46e-6
6.973e-6
5.953e-6
6.668e-6
6.565e-6
6.524e-6
6.969e-6
6.566e-6
6.725e-6
6.47e-6
6.975e-6
6.349e-6
6.973e-6
6.932e-6
6.134e-6
6.824e-6
6.212e-6
6.362e-6
6.282e-6
6.973e-6
6.568e-6
6.185e-6
6.974e-6
6.491e-6
6.966e-6
6.972e-6
6.207e-6
6.06e-6
6.973e-6
6.658e-6
6.505e-6
6.655e-6
6.447e-6
6.972e-6
6.445e-6
6.978e-6
6.33e-6
6.959e-6
6.979e-6
6.97e-6
6.553e-6
6.003e-6
6.113e-6
6.281e-6
6.363e-6
6.068e-6
6.447e-6
6.965e-6
6.95e-6
6.968e-6
6.153e-6
6.561e-6
6.41e-6
6.246e-6
6.766e-6
6.691e-6
6.222e-6
6.389e-6
6.98e-6
6.962e-6
6.838e-6
6.978e-6
6.304e-6
6.966e-6
6.977e-6
6.961e-6
6.325e-6
6.598e-6
5.85e-6
5.948e-6
6.325e-6
6.135e-6
6.384e-6
6.451e-6
6.975e-6
6.016e-6
6.85e-6
6.742e-6
6.974e-6
6.977e-6
5.909e-6
5.983e-6
6.159e-6
6.971e-6
6.248e-6
6.704e-6
6.452e-6
6.524e-6
6.297e-6
6.958e-6
6.959e-6
6.057e-6
6.605e-6
6.956e-6
6.661e-6
6.953e-6
6.802e-6
6.574e-6
6.36e-6
6.163e-6
6.028e-6
6.962e-6
6.974e-6
6.597e-6
6.967e-6
6.679e-6
6.423e-6
6.276e-6
6.959e-6
6.973e-6
6.179e-6
6.772e-6
6.285e-6
6.615e-6
6.518e-6
6.966e-6
6.96e-6
6.179e-6
6.601e-6
6.492e-6
6.019e-6
6.636e-6
6.049e-6
6.214e-6
6.631e-6
6.049e-6
6.947e-6
6.087e-6
6.185e-6
6.972e-6
6.972e-6
6.317e-6
6.459e-6
6.972e-6
6.193e-6
6.643e-6
6.184e-6
6.638e-6
6.253e-6
6.107e-6
6.981e-6
6.15e-6
6.661e-6
6.949e-6
6.205e-6
6.028e-6
6.563e-6
6.383e-6
6.143e-6
6.551e-6
6.963e-6
6.598e-6
5.917e-6
6.484e-6
6.371e-6
6.986e-6
6.962e-6
6.975e-6
6.645e-6
6.36e-6
6.59e-6
6.449e-6
6.977e-6
6.223e-6
6.305e-6
6.632e-6
5.944e-6
6.152e-6
6.979e-6
6.554e-6
6.665e-6
6.299e-6
6.972e-6
6.417e-6
6.355e-6
6.36e-6
6.059e-6
6.367e-6
6.974e-6
6.969e-6
5.903e-6
6.581e-6
6.549e-6
6.956e-6
6.971e-6
6.967e-6
6.961e-6
6.978e-6
6.983e-6
6.456e-6
6.97e-6
6.204e-6
6.975e-6
6.046e-6
6.548e-6
6.569e-6
6.1e-6
6.97e-6
6.242e-6
6.406e-6
6.178e-6
6.967e-6
6.34e-6
6.156e-6
6.497e-6
6.543e-6
6.557e-6
6.602e-6
6.966e-6
6.828e-6
6.e-6
6.965e-6
6.67e-6
6.502e-6
6.977e-6
6.978e-6
6.59e-6
6.749e-6
6.966e-6
6.218e-6
6.027e-6
6.964e-6
6.971e-6
6.97e-6
6.973e-6
6.416e-6
6.285e-6
6.971e-6
6.468e-6
6.244e-6
5.996e-6
6.182e-6
6.545e-6
6.459e-6
6.148e-6
6.972e-6
6.202e-6
6.964e-6
6.637e-6
6.986e-6
6.278e-6
6.976e-6
6.712e-6
6.351e-6
6.076e-6
6.964e-6
6.842e-6
6.977e-6
6.405e-6
6.428e-6
6.384e-6
6.001e-6
6.271e-6
6.973e-6
6.978e-6
6.698e-6
6.473e-6
6.331e-6
6.08e-6
6.963e-6
6.971e-6
6.415e-6
6.064e-6
6.129e-6
6.957e-6
6.448e-6
6.975e-6
6.947e-6
6.972e-6
6.972e-6
6.973e-6
6.19e-6
6.665e-6
6.211e-6
6.98e-6
6.968e-6
6.511e-6
6.962e-6
6.452e-6
6.969e-6
6.515e-6
6.506e-6
6.978e-6
6.848e-6
6.372e-6
6.389e-6
6.267e-6
6.029e-6
6.972e-6
6.946e-6
6.728e-6
6.282e-6
6.241e-6
6.649e-6
6.579e-6
6.51e-6
6.512e-6
6.179e-6
6.061e-6
6.226e-6
6.953e-6
6.165e-6
6.469e-6
6.317e-6
6.1e-6
6.43e-6
6.978e-6
5.842e-6
6.067e-6
6.595e-6
6.966e-6
6.518e-6
6.625e-6
6.952e-6
6.474e-6
6.348e-6
6.358e-6
6.144e-6
5.969e-6
6.964e-6
6.642e-6
6.775e-6
6.145e-6
6.972e-6
5.933e-6
6.524e-6
6.971e-6
6.966e-6
6.456e-6
6.648e-6
6.343e-6
6.952e-6
6.975e-6
6.302e-6
6.981e-6
6.97e-6
6.975e-6
6.544e-6
5.906e-6
6.959e-6
6.088e-6
6.965e-6
6.167e-6
6.441e-6
6.974e-6
6.114e-6
6.504e-6
6.54e-6
6.969e-6
6.288e-6
6.972e-6
6.585e-6
6.203e-6
5.948e-6
6.69e-6
6.572e-6
6.964e-6
6.025e-6
6.095e-6
6.208e-6
6.518e-6
6.722e-6
6.986e-6
6.588e-6
6.593e-6
6.795e-6
6.975e-6
5.892e-6
6.867e-6
6.969e-6
6.974e-6
6.026e-6
6.825e-6
6.965e-6
6.09e-6
6.175e-6
6.111e-6
6.966e-6
6.069e-6
6.133e-6
6.13e-6
6.177e-6
6.118e-6
6.29e-6
6.963e-6
6.613e-6
5.95e-6
6.982e-6
6.698e-6
6.953e-6
6.807e-6
6.706e-6
6.255e-6
6.766e-6
6.46e-6
6.963e-6
6.138e-6
5.895e-6
6.969e-6
6.983e-6
6.609e-6
6.974e-6
6.037e-6
6.629e-6
5.974e-6
6.383e-6
6.974e-6
5.859e-6
6.973e-6
6.193e-6
6.323e-6
5.88e-6