# vtk DataFile Version 3.0
3D scalar data
ASCII
DATASET POLYDATA
POINTS 15096 float
-84.9 32.07 11.93
17.75 -33.09 30.66
47.47 1.566 81.41
5.605 -43.65 30.55
11.75 62.6 -21.72
18.04 -18.89 -47.2
5.606 22.31 -8.272
-58.79 4.419 -16.15
48.24 -25.49 -29.63
9.46 7.032 28.79
17.03 3.8 -31.46
-7.378 18.12 -12.7
41.61 28.62 3.031
17.33 86.59 59.88
-66.9 7.752 2.97
-45.26 -73.61 80.32
83.76 -9.163 2.239
65.18 -41.82 3.301
-88.47 -22.71 -86.15
-12.45 -47.03 30.1
27.46 27.16 87.33
77.41 68.68 -74.54
11.53 50.67 -14.11
-5.804 40.84 -17.51
-22.45 -6.966 15.68
-45.48 -39.76 -32.95
22. 94.26 68.09
-39.47 -112. 19.93
-30.18 30.74 50.74
16.51 2.041 47.38
-43.21 -94.49 -21.12
58.94 -23.15 -12.56
102.1 75.56 5.708
36.37 -39.18 122.2
73.43 -53.04 26.5
-1.949 38.05 -35.98
-62.49 -54.02 -50.09
4.543 54.21 -100.2
-10.92 6.458 19.02
-2.447 58.3 -31.55
7.568 7.549 44.35
101.3 14.59 89.04
29.5 -18.62 71.63
-37.85 -25.46 -24.17
-21.44 -24.38 -44.6
42.07 8.806 29.47
93.37 12.53 -4.833
55.99 25.83 15.4
-54.84 -11.4 43.01
-59.68 63.29 57.85
-12.6 110.3 -73.51
48.48 -0.724 -42.88
-6.168 -21.73 -16.03
118.4 -16.03 -70.48
100.8 56.88 66.63
-29.29 32.34 13.86
-4.39 48.63 60.3
-16.13 -52.46 -24.05
-42.65 -15.56 19.01
37.64 -8.43 -8.204
54. 68.16 -22.7
91.77 36.98 53.32
34.04 -81.87 19.63
53.31 -29.08 38.69
8.99 -63.05 -29.82
44.98 -54.14 14.85
-54.69 41.97 -38.62
-0.9093 30.86 4.842
51.14 -10.28 -13.25
-30.5 -42.69 11.51
-8.563 37.76 107.4
29.18 6.652 -117.1
60.69 -12.42 69.24
-51.09 12.87 -60.98
-15.87 17.05 -54.89
-4.248 -54.24 42.95
-82.02 -88.04 1.863
-29.29 53.48 -12.57
7.711 -12.33 24.58
-71.61 -53.76 -10.27
-42.41 17.44 8.381
85.22 78.82 17.
-6.565 31.86 -28.49
-7.653 -26.7 14.
11. 112.6 71.58
102.7 22.18 78.28
38.68 72.99 -30.71
16.05 -0.72 -48.59
50.74 -4.248 -52.91
-34.55 89.58 38.12
-0.6566 -41.37 77.73
-82.66 41.32 3.72
23.62 -35.25 -82.79
-55.23 66.36 20.04
12.1 -24.09 28.89
100.1 12.75 44.06
4.421 -4.647 0.01242
2.631 -23.17 -19.02
26.35 63.68 -26.45
-83.33 24.19 -18.06
-11.5 -89.71 -63.09
43.52 35.29 -45.6
-36.19 7.466 86.67
-48.55 -50.24 86.84
-25.72 28.66 23.41
32.57 -56. -69.38
-10.92 -69.52 87.72
-103.4 79.96 42.76
8.405 -65.71 15.15
33.74 18.14 4.253
23.89 58.77 37.
110.8 -27.09 -5.537
-80.83 20.55 40.33
74.83 -28.3 59.83
69.52 -0.03319 -17.57
-0.7498 -117.6 -0.6331
21.22 -66.74 28.84
30.07 -22.17 25.32
50.65 -99.46 -20.97
35.91 -1.307 58.52
-23.67 -11.23 1.262
57.77 -79.74 -57.85
-34. -32.56 -18.33
-9.251 1.03 27.8
9.298 -23.18 -40.73
-115.5 0.4598 30.93
36.31 -73.78 -30.01
7.306 20.49 -75.96
39.1 -39.67 4.109
-70.45 -39.58 -67.34
47.03 -29.91 73.57
105.5 -6.11 31.92
-10.42 40.99 2.058
141.1 28.21 -23.38
27.33 8.375 -12.12
-73.95 41.43 -22.53
-90.74 -44.54 49.18
48.26 5.891 -22.71
-39.45 33.81 -46.73
58.02 24.25 24.66
26.38 1.528 11.61
-18.42 17.62 23.82
-26.07 -7.412 79.59
10.59 -1.444 -64.39
25.35 11.21 19.88
-93.76 -3.762 41.54
-94.51 -18.26 -47.08
-41.21 -27.91 -14.49
12.64 46.22 -48.09
2.053 3.241 6.304
55.84 3.642 -67.95
-17.48 92.75 62.9
-22.46 -95.63 -1.401
-2.495 10.37 -86.96
49.3 -99.69 -9.777
-20.53 1.564 -0.3087
47.27 15.63 -57.36
11.96 56.32 11.54
72.05 32.01 -77.11
5.713 52.03 32.67
28.71 78.09 17.47
30.07 -53.2 -51.92
-83.86 71.07 75.71
15.39 16.59 6.441
8.414 -28.88 10.85
-54.61 -21.55 45.31
-23.16 -72.13 -3.557
92.76 -38.59 -80.74
15.39 92.79 6.296
36.37 76.26 73.7
95.78 26.93 84.66
-12.98 -17.82 -23.74
-30.07 74.06 -29.69
-1.202 -1.413 -47.16
-0.04573 107.4 -6.028
-26.42 1.273 55.7
7.401 -9.146 -70.
9.883 -37.98 41.58
28.45 -116.2 -51.64
3.202 -71.56 115.1
13.18 29.62 -87.24
-6.701 -39.46 -99.69
52.72 74.29 -13.12
-50.8 70.02 -34.31
1.015 79.35 -44.14
16.17 -20.38 44.08
-32.32 72.45 82.96
-11.55 98.77 33.58
-36.86 5.187 23.04
35.4 90.03 36.24
16.59 -47.75 -14.05
47.77 46.96 -72.68
-39.77 49.3 81.37
15.29 10.25 -25.26
18.92 -11.55 -7.605
-13.15 -91.29 -12.84
29.05 18.71 -1.455
-70.74 -17.92 -6.921
-17.67 44.7 114.3
-25.89 63.96 6.329
-35.42 -77.48 45.43
32.41 -8.277 9.901
-6.98 42.03 21.46
-41.47 25.58 -122.4
32.99 92.06 -6.733
-74.97 31.21 58.91
28.65 31.33 100.3
-34.22 23.15 19.52
3.663 -79.05 34.03
26.89 -62.23 11.29
94.44 -66.01 19.19
51.56 -25.08 -57.79
63.08 2.51 8.713
117.8 -28.85 23.76
-31.85 -8.715 -2.249
69.44 -75.63 57.6
89.76 29.36 -25.45
92.83 83.96 7.787
46.3 -22.81 23.63
30.97 -58.34 31.57
65.74 13.02 -22.52
26.03 -54.69 46.02
131. -43.29 21.23
-0.3365 -12.03 6.19
-0.09364 -52.35 35.22
55.16 -57.11 -51.49
-43.67 -35.41 -7.142
63.66 4.772 98.76
-61.11 -47.35 -22.67
-66.23 -40.92 -55.39
53.07 -50.43 51.71
14.37 -97.64 -43.51
22.17 -40.57 62.81
-92.77 -45.67 20.44
41.42 -90.9 -48.82
52.94 -26.63 1.851
-16.2 -16.73 100.
5.123 -21.05 43.74
-1.073 -18.26 -44.56
14.88 -26.46 -69.51
-51.07 45.95 -81.7
-42.81 6.384 -64.73
-37.35 0.364 -46.06
-84.37 -56.76 49.89
40.07 39.3 8.497
44.85 49.79 -116.9
73.57 -94.65 62.82
42.69 -32.1 -3.817
22.86 -38.94 -12.32
-35.74 95.34 2.083
-56.48 -84.49 9.16
8.1 67.87 46.47
40.26 63.85 74.64
-17.78 9.684 -46.05
103.4 44.7 -66.47
-65.05 2.208 -41.13
102.2 3.891 37.07
10.94 -37.03 -42.56
106.9 50.65 -76.08
101.3 -65.08 52.54
-83.32 39.36 -31.35
-21.09 23.72 -54.38
-22.7 26.56 21.32
40.07 -6.311 32.73
-24.47 44.78 -16.78
-27.46 -32.69 21.92
20.29 -24.05 34.41
57.4 -13. -25.1
-17.88 75.86 -49.98
72.34 -24.54 -30.67
91.15 -17.15 70.44
34.27 26.51 19.71
-60.08 12.81 -36.55
-6.188 27.7 58.29
-35.5 25.1 35.77
-37.78 33.65 77.05
-87.06 -2.363 -20.74
-4.825 -5.578 45.74
28.16 -0.807 -47.77
-106.8 -44.19 23.27
139.7 8.24 -16.43
-12.97 -5.843 -109.5
58.65 -72.08 -101.5
30.88 -48.7 -2.279
38.76 -12.2 -75.1
-83.02 -9.026 7.435
45.18 36.13 24.47
-22.49 -53.37 -24.9
18.94 62.13 85.19
16.9 6.422 14.49
8.004 21.81 1.772
21.87 11.03 64.24
-1.792 23.34 -19.66
-2.011 35.38 15.15
-22.35 -53.8 26.
87.43 -19.58 -92.74
19.15 42.14 39.6
18.1 -7.046 -68.28
-9.665 43.73 -44.16
-72.11 -64.85 21.4
-36.62 -70.32 -16.36
9.265 15.78 36.45
21.93 3.848 38.65
-31.03 2.591 -33.9
-87.62 44.36 73.13
-31.93 18.98 -5.497
-39.91 55.18 -14.46
-45.12 21.98 23.32
-18.31 32.67 -27.5
31.5 21.37 37.33
-17.87 -31.77 -65.88
24.13 74.26 -20.97
0.4739 5.955 34.84
-79.26 -66.41 73.98
49.68 55.8 30.89
-11.61 -54.86 -76.9
54.34 8.438 132.
-64.39 47.83 0.3497
-10.56 -16.4 -40.11
-34.82 19.12 -9.111
27.02 43.13 19.18
11.45 -6.861 -26.95
-85.97 82.21 -19.28
26.36 -66.15 -70.73
31.07 94.63 -17.15
-37.52 78.64 -14.59
27.81 129.6 -42.94
-47.04 -36.85 52.51
-6.045 -55.53 -19.8
126.6 -3.424 -35.25
64.59 47.58 41.5
-7.6 -28.76 -4.376
47.8 55.41 -59.16
50.44 10.86 24.77
-16.11 -58.33 107.9
87.42 48.06 -25.98
-43.8 5.456 120.
22.58 89.92 104.6
38.22 25.17 60.6
78.16 -94.41 -20.08
0.4834 49.79 -25.65
35.5 4.905 -18.46
46.91 -28.55 62.55
26.22 -14.32 -17.34
28.16 1.888 -32.06
26.28 -22.74 -60.96
-8.157 11.75 23.13
48.56 38.87 35.63
28.16 21.66 -18.48
40.46 8.155 76.67
32.22 91.67 23.79
-81.34 63.99 -28.4
1.101 -4.85 -29.38
14.78 -15.68 67.45
37.56 -15.22 -103.5
6.273 43.69 -18.4
-15.3 17.17 69.71
58.49 -16.77 -54.61
-13. -47.24 41.61
-27.58 -46.27 -0.06627
2.943 28.72 55.6
-64.47 108.3 -26.44
-0.5506 18.37 59.77
5.936 1.26 88.93
-7.243 104.5 25.43
6.165 6.849 -32.36
33.46 -8.687 6.356
59.88 29.27 94.29
19.41 79.02 33.94
18.51 0.7235 -29.88
49.3 10.6 -44.36
7.825 -75.01 33.01
-37.53 56.87 33.66
16.37 -12.54 5.693
-18.11 -18.16 58.39
-53.22 61.23 1.76
-25.74 -80.34 51.01
-12.39 118.2 18.17
-15.61 -128.9 -19.19
-20.01 40.17 101.
-54.38 0.08641 15.92
64.64 -40.47 64.71
50.32 119.3 -9.978
12.23 -103. 65.96
-18.71 34.62 26.24
90.03 -30.44 -24.61
16.41 55.84 -46.41
-10.89 -14.77 -9.634
29.64 48.18 -21.68
98.23 -3.043 51.59
-55.15 43.23 -3.913
-82.94 -50.2 12.62
-15.65 42.68 48.86
-29.89 -46.15 90.94
-80.64 48.87 64.35
74.04 -28.66 -8.492
114.6 -15.22 -7.373
22.52 -24.7 4.609
-65.63 -11.15 -15.29
68.16 -101.4 -12.82
-95.9 29.93 18.08
36.08 12.68 6.
-42.2 -54.49 -23.39
20.44 -56.67 31.05
-33.63 50.14 116.1
-84.07 14.15 47.81
84.27 112.3 34.44
-40.35 14.1 73.35
92.11 42.98 10.59
9.278 75.2 -78.75
45.93 -22.17 -49.01
115. 59. 8.767
60.24 -20.89 8.038
21.61 -124.6 36.55
-31.2 0.1258 4.563
65.35 -26.8 78.92
11.41 -52.62 -7.506
14.95 -28.97 19.2
74.64 100.5 -6.52
21.94 -38.33 4.118
40.5 -52.87 32.44
-32.49 -46.47 -39.07
-0.06377 -77.32 -2.687
58.78 -11. -18.22
52.04 10.05 -15.09
-36.66 -34.86 17.32
78.07 -21.4 -23.19
-64.84 -17.42 2.757
14.02 -4.636 87.69
56.3 -122.6 7.099
49.22 10.36 84.74
-2.659 -29.89 4.655
91.55 -56.49 52.39
95.27 -30.28 -52.49
-12.77 -39.53 -37.51
65.95 -84.82 16.79
-68.61 -8.793 -81.4
102.6 21.43 -11.64
-32.33 -20.2 76.13
-41.57 -66.25 32.17
28.15 -49.39 -15.28
32.45 -40.76 -4.554
-80.07 14.7 91.31
76.37 62.4 108.3
30.32 -56.41 -109.9
19.58 -101.9 -66.22
20.71 5.064 -42.27
55.75 7.959 6.456
-47.97 -60.22 117.2
-69.76 -6.481 -34.66
40. -42.82 -1.235
-45.18 26.63 2.144
-19.28 -19.75 -55.16
7.095 53.81 40.8
-32.41 4.972 -61.51
39.92 -27.04 38.5
66.82 -68.95 106.3
2.863 -9.896 38.12
-66.53 -29.9 -71.3
52.35 23.59 -62.55
64.88 48.47 58.
-43.7 -24.38 -26.82
-107.5 -31.58 75.64
52.61 -89.09 33.83
41.28 50.77 -18.62
25.56 -43.94 13.92
-12.96 11.48 -93.11
-67.83 -56.64 0.7709
29.22 -83.38 91.09
-20.83 30.87 -16.09
52.89 38.58 -35.54
-8.551 51.5 73.66
-7.084 26.53 30.51
9.501 -3.077 -37.1
59.67 45.7 19.94
10.28 -58.96 57.21
67.59 -61.02 18.71
93.6 -51.36 32.58
68. -16.72 30.65
-8.864 7.509 -27.41
46.1 21.02 -86.38
88.41 -61.9 -54.42
-24.46 -34.17 40.27
4.258 -3.148 39.76
-19.18 26.48 -1.256
-40.64 88.66 92.73
67.96 -19.66 60.73
-80.81 -8.331 -89.21
-68.43 81.39 -74.27
35.66 -62.98 44.67
-114.8 24.21 -56.62
66.39 -26.82 -70.31
37.91 -27.49 -23.98
70.51 19.23 -37.23
-12.52 16.66 33.84
65.83 57.26 96.19
-63.46 79.84 -55.92
36.26 9.678 40.14
85.48 -87.54 -28.94
-54.97 -20.66 -28.53
-64.07 37.65 102.6
-0.05408 45.23 -81.18
-27.96 17.88 89.14
-98.29 -82.05 -37.64
-8.377 82.9 18.98
-34.25 10.7 -46.61
31.83 -38.21 -66.2
-38.2 -42.96 -24.85
11.34 16.68 40.64
89.41 22.5 -65.01
-72.73 8.438 -19.93
-76.69 24.8 -90.54
28.1 -46.78 -12.76
-43.18 1.222 -14.81
48.98 47.83 89.54
-22.53 -95.79 17.16
10.12 30.43 -52.29
-69.49 -25.93 74.51
[...]
POINT_DATA 15096
SCALARS radius float
LOOKUP_TABLE default
6.576
4.801
4.99
6.316
4.97
5.705
5.797
5.973
6.323
5.954
6.301
4.819
6.393
6.642
6.921
7.611
6.308
5.783
7.677
5.453
7.072
7.541
5.854
4.879
4.966
5.055
6.436
7.483
6.512
5.05
5.983
6.413
7.683
7.646
7.06
5.739
6.894
6.399
5.947
6.373
6.477
7.76
4.429
6.195
6.689
3.184
6.004
5.107
6.5
5.776
7.555
6.611
5.57
7.476
7.598
6.61
6.445
6.262
6.215
5.762
7.164
6.984
6.512
5.624
5.981
6.586
6.76
6.36
6.047
6.65
7.209
6.816
6.294
6.95
6.403
6.014
7.661
5.559
6.234
6.96
5.89
6.81
6.285
6.239
7.704
6.543
6.825
5.828
5.566
6.771
5.791
7.197
6.082
7.091
6.364
6.994
6.032
6.391
6.641
6.421
6.728
6.873
6.347
7.522
6.206
6.694
7.509
7.832
6.619
6.229
5.83
6.339
6.341
6.106
6.415
7.523
5.762
5.704
6.65
6.376
4.149
7.672
4.644
5.766
6.542
7.351
6.981
5.904
6.218
6.315
5.691
5.709
6.403
7.581
6.296
6.568
7.336
4.094
6.117
6.621
6.055
6.274
5.53
5.256
6.172
6.993
7.4
5.518
6.63
5.532
6.538
7.415
6.855
6.839
6.066
6.266
6.193
6.382
7.2
4.98
5.378
6.638
7.771
6.298
5.724
5.906
6.449
7.586
6.862
6.871
7.787
6.238
7.106
6.023
7.162
6.019
5.542
4.409
7.452
7.846
6.668
7.433
6.795
6.969
5.698
6.012
7.51
6.941
6.128
5.626
6.627
6.159
5.811
6.255
5.419
6.116
6.338
5.508
7.714
6.485
7.128
6.25
5.408
7.557
6.903
7.019
7.137
5.812
6.835
6.49
7.347
5.649
3.523
7.408
6.27
6.215
6.961
6.622
6.375
5.919
6.158
6.629
7.604
6.038
5.876
6.474
6.644
6.35
6.667
7.081
6.816
7.04
6.64
7.488
7.476
6.637
7.154
6.412
5.919
6.835
7.276
5.463
6.465
7.261
6.053
7.76
7.76
6.591
5.652
6.706
6.681
6.865
6.734
6.633
7.591
6.813
6.026
6.205
7.608
7.551
7.258
6.779
6.32
6.086
6.491
5.628
5.654
6.055
6.838
6.274
6.838
6.214
6.565
6.531
6.471
6.343
6.235
6.388
6.245
7.398
7.587
7.502
7.836
6.057
6.437
5.892
6.536
4.408
6.569
6.282
6.239
6.395
6.296
6.238
6.811
7.566
5.818
6.061
6.136
6.777
6.946
6.189
6.25
4.792
7.57
6.153
6.688
6.373
6.15
6.198
6.984
6.052
6.067
7.883
6.674
7.305
7.704
6.041
6.03
6.539
5.785
6.249
7.63
6.732
6.926
6.661
7.862
6.59
6.421
7.581
5.369
6.312
6.542
6.275
7.831
6.922
7.567
7.127
4.864
7.405
4.382
6.047
6.797
6.17
5.758
5.728
5.921
6.36
6.149
6.721
6.75
6.121
5.813
5.248
7.184
4.222
4.557
6.438
5.846
5.958
6.318
7.824
5.793
6.973
7.238
6.43
6.202
7.307
6.702
6.239
5.878
5.622
6.644
5.831
4.655
6.985
6.058
7.259
7.806
6.114
6.661
6.917
7.676
7.796
4.203
6.548
6.785
6.207
6.664
7.026
6.397
7.345
6.352
7.258
7.347
4.746
7.35
5.825
6.778
6.979
7.23
6.357
6.421
5.932
7.835
6.757
7.837
6.204
7.156
6.172
6.571
7.777
5.756
7.77
6.344
7.17
4.211
6.218
7.49
5.852
6.5
5.456
5.705
6.489
6.404
6.217
5.824
6.658
6.305
7.194
6.439
6.107
6.583
6.932
6.151
7.09
5.753
7.33
6.656
6.282
6.619
3.396
7.819
7.822
7.803
7.634
4.562
6.459
7.613
6.627
6.194
6.556
6.37
4.317
5.875
6.177
7.724
6.374
6.179
6.669
7.025
6.57
7.583
6.866
6.598
6.532
6.78
6.49
7.572
6.647
6.459
6.502
6.092
6.493
5.082
5.815
5.288
7.442
4.841
5.837
7.1
7.474
6.495
6.005
4.531
7.636
7.086
7.596
7.557
6.657
7.577
6.114
5.807
6.716
6.126
7.549
7.201
4.25
7.563
6.634
7.698
6.853
6.542
7.587
6.258
5.747
6.77
4.959
6.526
6.484
6.462
7.023
6.39
3.605
7.087
7.323
6.4
7.177
6.415
5.321
6.302
7.438
6.131
6.382
6.372
6.229
6.336
6.318
5.662
5.967
7.297
7.823
6.733
6.858
6.345
6.691
7.335
6.403
6.294
6.254
7.358
7.19
5.921
6.409
6.653
6.238
6.588
7.13
6.809
5.891
7.513
6.45
7.577
7.578
6.172
6.341
7.647
6.907
6.554
6.132
7.545
6.409
7.469
6.028
6.79
7.474
6.298
4.174
6.427
7.14
6.592
7.23
6.38
6.217
6.289
7.502
6.71
7.631
6.531
6.005
6.328
6.969
7.274
6.001
7.022
6.931
7.519
7.295
3.577
7.58
6.973
7.583
4.585
6.728
7.708
6.298
5.867
6.512
6.936
6.582
6.17
6.164
6.373
4.255
6.584
5.716
6.635
6.287
7.564
6.968
7.61
6.624
6.65
6.221
7.034
6.338
7.121
6.541
5.77
6.604
6.883
5.987
7.148
6.209
7.535
6.253
6.649
7.219
6.406
6.876
6.468
6.558
5.976
6.048
6.418
5.977
5.979
7.131
6.003
7.445
6.627
5.893
6.368
7.538
6.506
6.464
6.883
6.485
7.748
6.4
7.234
6.168
6.751
6.483
7.384
7.561
6.949
7.556
6.655
7.106
5.995
7.116
7.103
6.538
7.635
6.925
6.365
7.848
6.376
4.34
6.685
4.018
6.646
6.23
7.545
6.936
6.494
6.703
7.207
7.038
7.848
6.739
6.082
6.344
6.316
6.883
6.596
6.233
6.346
5.355
6.157
6.41
6.556
6.761
7.167
6.126
6.331
7.011
7.74
6.318
7.222
6.331
6.276
6.604
6.379
5.363
6.242
7.61
6.147
5.528
6.539
6.381
7.845
6.118
7.593
6.513
6.294
6.825
7.168
7.515
6.36
6.453
7.398
6.354
6.282
7.701
6.566
6.096
6.004
6.023
7.648
7.477
6.398
5.845
7.313
6.276
6.621
6.4
6.158
7.541
7.124
7.185
6.428
6.412
6.336
6.883
7.374
6.161
6.482
6.527
5.775
5.849
6.207
7.079
6.428
7.763
7.421
6.638
7.037
6.086
5.671
6.422
6.191
6.736
6.932
7.746
7.811
6.74
6.228
6.604
5.405
6.087
6.218
6.878
6.27
5.571
5.782
4.96
6.576
7.195
7.807
6.415
6.636
7.664
6.174
6.461
6.185
5.771
6.626
6.661
5.599
6.288
5.022
3.513
7.589
7.303
6.283
6.512
6.778
5.837
6.495
7.619
6.998
6.774
6.598
6.126
6.567
6.511
7.228
7.5
7.812
7.364
7.774
6.487
5.752
7.386
6.387
7.206
6.594
6.882
6.415
3.42
7.588
6.455
6.102
6.679
7.029
7.611
7.612
7.615
7.588
7.545
6.164
6.398
7.001
6.317
6.173
7.019
7.072
5.282
7.751
6.393
4.767
6.182
6.859
7.399
5.936
6.999
6.585
6.533
6.823
7.588
7.663
6.134
3.614
7.618
6.83
7.038
6.539
7.076
6.48
6.246
7.551
7.584
7.265
6.946
6.617
7.556
6.626
6.401
7.055
6.445
6.685
6.158
6.551
6.025
6.795
3.995
7.586
6.49
6.094
6.458
6.162
6.735
7.164
6.657
6.281
6.665
6.745
6.351
6.25
7.809
6.607
6.228
5.714
7.696
7.527
7.54
6.289
3.921
6.378
7.222
6.469
5.783
6.164
6.145
5.324
5.257
4.702
6.34
7.431
7.585
7.29
7.614
6.241
6.927
6.876
7.019
7.705
5.473
7.297
6.495
6.311
7.385
6.553
7.032
6.973
6.204
7.14
6.941
6.565
7.172
4.598
6.217
7.117
7.36
6.342
6.565
6.23
6.863
6.907
6.208
6.137
4.516
6.349
6.398
6.455
6.479
4.987
7.583
6.906
4.862
6.835
6.066
7.621
6.736
6.874
6.674
3.906
7.552
6.578
6.679
7.326
7.003
5.739
6.539
7.09
7.487
6.731
6.535
6.784
5.916
6.352
3.942
6.974
6.567
6.474
6.511
5.964
7.308
6.976
6.356
6.343
7.877
6.128
5.649
6.678
6.746
6.656
6.799
6.064
6.429
6.287
6.361
3.77
6.545
6.207
6.581
6.929
4.522
6.811
4.439
6.602
7.583
6.968
6.639
6.524
7.012
6.297
6.867
7.46
7.265
7.74
4.24
6.476
7.237
5.753
7.309
6.754
3.57
6.662
3.382
7.492
6.211
5.673
6.348
6.566
6.592
6.9
6.772
7.647
6.34
7.617
6.066
6.673
6.103
6.459
6.712
7.592
6.616
7.573
7.555
6.713
6.295
6.128
3.757
7.735
7.296
3.56
6.715
6.552
5.63
4.692
6.913
6.786
7.558
6.348
6.795
6.53
5.597
6.729
6.353
6.915
6.112
6.867
6.218
6.257
6.351
5.447
3.767
6.999
6.343
6.498
6.823
6.833
4.122
6.94
7.761
6.66
6.308
6.584
4.346
5.062
6.17
7.409
7.851
6.814
5.51
7.033
6.067
7.079
6.083
6.904
6.427
6.619
5.668
7.269
6.238
6.809
6.676
3.774
6.354
6.96
6.235
7.838
6.89
6.433
7.601
7.608
6.127
6.828
6.578
7.152
7.817
6.638
7.199
6.487
6.766
7.085
6.123
6.467
6.457
6.61
5.837
6.742
6.461
7.22
6.697
6.704
6.21
7.111
6.135
6.356
6.503
6.52
6.908
6.717
6.593
7.155
5.333
6.456
4.343
7.54
7.874
6.19
7.833
7.106
6.951
6.481
6.968
6.823
6.647
6.688
6.234
7.032
6.884
5.944
6.279
3.179
7.442
6.604
5.063
7.319
6.677
6.105
7.04
6.486
6.211
6.717
6.853
6.38
7.399
6.213
6.83
6.234
6.614
7.843
3.396
6.279
6.263
6.433
6.414
6.949
6.892
6.735
6.147
6.21
7.609
6.625
6.329
7.114
7.577
6.735
7.843
5.616
7.029
6.738
6.416
7.29
7.862
3.727
6.464
6.455
6.677
6.497
5.031
6.246
7.381
5.912
6.614
6.52
4.047
6.01
5.623
6.635
6.344
3.546
6.43
6.344
6.819
7.083
6.789
6.78
6.535
5.916
7.546
6.834
6.037
7.258
7.442
7.145
4.99
7.587
7.061
6.462
7.378
7.73
6.772
7.717
5.156
7.28
7.315
6.842
6.748
6.659
6.571
4.354
6.945
6.261
5.6
7.458
6.317
6.788
7.528
5.714
7.189
6.886
3.976
7.702
7.677
6.78
5.864
6.722
7.237
6.878
3.628
6.403
6.759
4.066
6.824
6.974
5.637
7.506
5.999
6.873
6.882
5.451
6.423
6.215
5.605
7.542
4.846
6.411
7.697
6.503
6.822
7.452
6.375
6.601
6.894
6.428
7.833
6.853
6.57
6.397
5.905
6.782
6.554
6.33
6.618
6.645
6.679
6.252
6.095
6.506
6.918
6.618
6.507
7.646
6.903
7.732
6.755
7.796
6.848
6.465
5.641
6.636
5.058
6.557
5.373
7.485
6.993
6.3
7.01
6.589
6.085
7.014
6.715
6.664
7.733
7.421
7.313
6.038
7.791
5.991
7.683
7.087
7.841
6.715
6.841
6.739
6.669
4.957
6.739
6.69
7.292
6.991
6.878
7.166
6.409
5.989
7.506
6.279
6.816
7.855
7.491
7.275
7.583
5.444
6.367
7.139
7.419
7.673
6.53
6.759
5.708
7.144
6.899
6.813
4.779
7.119
7.643
6.676
7.013
6.471
6.811
7.32
7.533
6.119
7.009
6.368
6.39
7.575
7.229
6.224
7.011
7.257
6.817
5.987
7.378
6.679
7.451
5.714
7.034
6.523
7.641
6.874
6.258
5.301
6.359
7.755
6.099
6.788
7.45
6.083
6.937
6.545
6.965
7.509
7.344
5.522
6.32
6.849
6.594
7.024
6.639
6.207
7.284
3.569
5.975
6.187
6.225
6.515
7.295
7.332
6.301
7.577
6.269
6.639
6.316
7.596
6.431
6.364
6.51
6.805
6.531
6.46
7.088
6.238
6.007
6.41
7.039
6.238
7.748
7.12
7.515
6.502
7.637
6.491
6.732
6.528
6.545
6.419
5.145
6.689
7.139
6.592
7.791
6.971
5.441
7.78
6.53
7.173
6.324
6.642
6.409
7.289
7.454
7.103
7.025
6.386
4.774
7.652
6.823
7.439
6.661
7.558
5.172
6.469
6.829
6.832
7.592
7.649
6.081
6.308
7.263
7.588
6.759
6.746
6.185
6.443
6.383
5.67
4.341
7.731
6.73
7.311
7.621
7.369
7.385
6.806
7.741
6.643
6.285
7.263
7.596
6.916
6.666
6.823
6.252
7.725
6.541
6.807
7.058
6.804
6.787
7.092
7.614
7.345
7.734
7.605
6.629
6.612
7.583
7.399
6.913
7.138
7.611
6.51
6.471
6.609
7.051
6.672
7.259
6.488
4.672
7.308
6.021
6.692
6.401
7.609
7.711
6.682
7.095
6.781
6.03
7.203
5.649
7.056
7.842
6.417
5.686
7.618
7.36
6.469
6.662
6.692
4.135
7.565
7.585
6.808
5.836
6.31
7.611
7.215
6.729
5.847
4.426
7.589
6.433
6.862
6.313
5.299
6.454
6.675
6.454
7.169
7.603
7.462
5.084
7.385
6.906
7.57
6.431
6.948
6.934
6.781
6.905
7.246
6.508
6.032
6.763
6.453
6.275
6.135
7.109
6.743
6.361
6.767
7.858
6.637
7.321
7.6
7.085
3.912
4.482
6.813
6.299
5.739
6.622
7.632
6.611
7.15
6.966
7.335
7.261
7.539
6.413
6.273
6.578
6.2
6.757
6.552
7.036
7.039
6.495
7.495
7.595
6.461
7.371
3.909
6.463
7.543
7.487
6.876
7.547
6.486
6.854
4.432
7.122
6.383
6.397
7.481
6.652
7.175
6.633
6.648
4.276
6.814
6.383
7.089
7.73
7.193
6.605
6.707
6.691
7.293
7.233
7.595
6.742
7.511
6.396
6.973
7.057
7.18
6.909
6.099
7.02
6.712
7.471
5.948
6.771
6.558
5.193
7.168
6.765
6.309
5.497
3.398
6.536
6.628
7.461
6.965
5.317
6.671
4.971
5.929
7.035
6.468
6.894
7.586
5.867
6.599
6.097
6.392
7.62
5.146
5.897
7.23
5.348
6.51
6.776
6.604
5.743
4.431
5.07
6.783
6.053
6.514
4.123
6.369
3.908
3.513
6.925
7.558
3.698
5.044
6.207
7.39
4.703
7.544
5.477
6.421
6.111
5.817
7.163
4.876
5.416
5.747
6.915
4.318
7.6
6.455
6.4
7.556
6.717
6.411
6.694
6.964
5.426
7.005
7.612
6.987
6.224
7.324
7.232
5.905
5.981
3.878
6.457
7.128
7.407
6.29
6.045
6.397
7.596
6.24
7.507
7.057
7.636
7.216
6.84
6.77
7.552
6.531
6.572
6.242
7.574
7.134
6.945
6.392
5.233
6.601
6.326
7.174
7.065
5.872
7.085
7.504
6.462
6.609
7.237
6.846
6.481
6.94
7.64
5.646
5.697
7.347
6.44
6.326
6.337
7.124
6.439
6.638
7.18
5.936
7.763
6.882
7.434
5.939
7.079
7.111
6.171
6.431
6.667
7.426
5.04
6.404
7.569
7.192
7.067
5.664
5.94
7.585
5.109
6.887
5.072
6.522
5.705
6.963
6.664
6.533
6.885
7.248
6.404
7.073
7.57
6.627
7.507
6.529
7.279
6.391
6.524
6.629
7.14
6.673
7.283
6.317
6.548
6.416
7.551
6.847
6.515
6.641
7.541
7.175
7.372
3.943
7.005
3.607
7.023
6.594
4.134
4.458
7.29
6.561
5.247
7.882
7.533
6.669
7.562
7.009
6.525
6.421
7.626
5.396
4.511
6.785
7.568
7.881
6.92
6.321
6.431
4.465
7.507
6.894
7.032
7.078
6.944
6.399
7.404
6.336
7.594
6.887
6.223
7.571
4.38
6.961
6.561
6.47
6.52
7.524
7.057
5.244
5.665
7.52
4.579
7.629
6.803
7.274
6.656
6.377
7.611
6.732
6.66
7.089
7.179
6.149
5.008
7.339
6.197
6.783
6.561
6.496
6.083
7.592
6.566
4.321
6.465
7.48
4.85
5.791
7.078
6.881
6.176
3.398
6.541
6.577
5.63
7.539
4.066
3.984
6.375
7.569
5.975
6.342
6.306
6.388
3.761
5.778
6.274
7.449
5.709
7.819
5.916
5.837
5.738
7.185
5.913
7.229
7.839
6.146
7.205
7.645
6.232
4.566
7.092
6.657
6.561
7.391
7.315
6.833
7.495
6.387
5.429
7.885
6.111
6.585
7.857
6.384
7.174
6.209
5.409
6.876
6.69
6.655
5.957
6.4
6.899
3.74
6.415
6.234
7.492
6.6
7.556
7.299
6.284
6.777
7.007
6.784
6.762
6.979
3.647
4.923
7.405
7.539
6.693
5.886
4.444
7.838
6.842
7.815
6.473
7.607
6.414
5.637
6.185
5.731
6.328
7.41
6.553
6.836
6.301
7.276
7.116
6.766
6.953
5.839
6.959
6.82
7.494
6.49
6.701
6.766
7.087
6.652
6.722
6.532
6.886
6.713
6.525
7.351
7.206
6.86
3.486
7.368
7.316
7.575
6.591
6.749
6.652
5.564
3.627
5.735
7.571
4.304
7.35
3.331
5.802
6.408
6.562
6.571
6.902
6.624
6.904
6.527
6.627
6.914
5.348
6.981
7.563
6.222
7.607
7.784
7.278
5.817
6.685
7.278
6.616
4.932
5.921
7.333
6.44
7.829
7.3
6.239
6.092
7.555
7.817
7.839
5.708
6.646
5.932
6.895
5.692
4.145
6.31
6.459
7.386
6.325
6.76
6.602
5.926
6.515
7.841
6.6
3.817
5.634
7.408
5.23
5.15
6.866
7.4
6.703
7.808
6.31
6.126
7.43
7.184
6.824
5.088
4.291
6.008
7.416
6.431
6.311
6.131
6.742
6.09
6.84
7.399
7.128
7.846
3.632
6.957
7.263
6.873
6.322
6.48
7.193
7.
3.648
7.449
6.371
6.818
6.169
6.556
7.03
5.763
5.544
6.301
7.662
6.071
6.498
6.857
7.744
7.167
7.096
6.296
6.879
7.005
7.728
4.214
5.42
6.471
6.374
6.909
6.128
7.848
5.408
5.663
6.805
7.419
7.152
6.342
6.188
7.356
7.489
6.018
7.497
7.624
5.721
6.585
6.564
7.745
6.437
6.431
6.536
6.756
6.161
6.87
6.488
6.882
5.922
6.703
6.333
6.495
7.549
6.038
7.575
5.814
4.204
6.13
7.668
6.529
7.48
6.503
7.018
6.804
5.036
4.663
6.592
7.677
6.468
5.538
7.147
7.861
7.824
5.818
7.352
7.124
6.396
6.917
6.453
5.819
6.094
6.827
6.38
6.564
5.896
6.966
5.978
5.505
4.444
5.437
6.539
6.577
5.253
7.546
5.863
7.847
7.767
6.764
6.746
6.5
6.252
7.811
4.781
6.411
6.254
6.574
7.829
7.107
6.504
6.614
6.57
7.57
7.18
7.161
7.538
7.539
6.977
7.499
7.569
6.913
6.226
6.255
6.4
6.903
7.149
7.228
5.389
7.54
7.365
6.066
7.296
5.738
7.864
7.837
6.481
6.399
6.638
7.671
6.085
7.036
5.271
4.559
7.739
3.78
6.839
6.727
7.134
7.134
5.924
7.777
4.994
7.093
6.597
6.943
6.592
6.406
6.215
6.74
7.573
7.857
3.687
6.296
6.211
6.636
7.078
6.259
6.494
4.878
6.377
3.656
6.663
7.032
6.564
5.008
6.567
4.611
4.338
6.132
7.853
6.003
4.955
6.245
7.038
7.787
6.453
7.58
6.559
6.043
7.405
6.95
6.799
5.877
6.784
4.881
6.416
6.967
7.451
6.845
7.773
6.012
6.414
6.363
7.12
7.612
6.646
6.874
7.174
7.512
6.737
5.734
6.019
6.578
7.73
6.43
7.724
7.174
4.016
4.274
6.616
7.052
6.478
6.699
6.888
6.142
5.294
7.395
7.018
6.991
6.79
6.635
6.819
7.226
5.918
6.554
6.673
6.044
6.441
6.461
5.6
6.318
6.591
6.867
7.497
7.421
5.245
6.997
7.171
6.412
7.756
7.853
7.495
6.529
6.445
7.026
6.779
6.309
6.729
5.838
7.815
7.606
5.639
6.75
6.805
6.489
6.428
6.951
7.52
6.609
6.601
5.713
6.121
7.446
6.921
6.121
7.011
7.631
7.794
6.572
7.389
7.042
6.813
6.393
6.807
7.08
6.685
6.648
7.055
5.149
6.836
6.193
5.403
7.481
7.711
7.734
7.262
7.798
6.632
7.65
5.756
7.682
6.856
6.818
6.566
4.928
6.73
6.69
5.689
7.612
3.771
6.694
6.908
6.815
6.886
7.512
7.068
7.313
6.815
5.831
7.264
6.617
7.827
6.359
6.24
6.656
6.864
7.096
5.649
4.398
7.146
6.656
7.06
6.886
3.214
7.729
7.5
6.959
5.62
4.424
6.293
6.731
7.684
6.407
7.469
7.377
6.103
7.062
4.12
7.043
5.604
6.746
6.606
5.2
6.053
7.846
5.44
7.707
7.796
7.447
7.33
7.009
6.672
7.155
4.342
7.014
7.856
7.395
7.006
6.971
7.132
6.533
6.681
5.461
6.406
5.886
7.358
6.683
4.601
7.12
6.605
6.541
7.009
7.312
5.757
7.273
6.316
6.732
6.636
6.693
5.236
5.387
6.506
7.305
7.594
6.539
6.466
6.868
7.833
7.507
7.574
6.434
7.785
7.005
6.847
7.572
7.102
4.297
6.842
6.545
7.44
7.684
7.661
6.298
6.855
7.151
7.007
6.564
5.774
7.214
6.904
6.592
7.641
6.606
6.917
7.641
5.141
6.413
6.33
7.57
7.384
6.068
5.195
6.885
6.463
6.686
7.077
7.077
5.738
6.246
7.654
6.966
7.046
6.156
6.855
7.832
7.609
6.395
6.935
6.323
7.19
6.97
7.661
6.51
6.852
7.292
6.95
7.576
6.411
7.051
6.9
7.531
7.819
6.229
7.716
6.321
6.649
6.938
6.797
5.748
6.393
6.61
7.587
5.798
6.635
4.922
6.462
6.839
7.278
6.502
7.491
6.472
5.426
6.915
7.043
3.889
6.297
7.565
7.661
5.604
7.746
6.946
7.807
7.628
6.169
7.172
7.604
7.184
7.357
6.39
7.398
7.069
7.382
7.615
6.656
5.144
6.315
7.723
7.465
6.758
7.449
6.102
6.77
7.373
6.955
7.332
7.6
3.31
7.76
6.564
4.078
7.34
7.1
7.646
5.208
6.574
7.505
6.707
7.768
6.919
6.902
7.424
5.612
6.488
6.433
7.606
4.496
7.657
4.367
6.572
7.395
7.583
6.639
7.803
7.654
6.759
6.714
6.658
7.625
7.538
7.549
6.606
7.117
3.93
7.448
7.703
7.052
5.443
7.655
7.341
6.77
7.409
7.605
5.695
6.196
6.957
7.475
6.365
7.141
7.627
7.706
6.768
6.038
6.847
7.063
7.642
6.598
6.702
6.919
7.539
7.449
5.278
6.039
6.865
6.947
7.734
7.016
6.956
4.001
6.446
6.737
7.666
7.567
6.615
6.27
7.75
6.662
6.951
6.01
7.799
6.802
7.395
6.771
7.623
7.13
3.347
6.645
7.614
6.478
7.629
4.933
5.934
6.545
6.763
5.515
6.11
5.287
7.358
7.092
7.093
7.633
7.665
6.22
7.718
6.619
7.608
6.796
7.129
7.48
7.615
6.247
5.604
4.787
7.617
7.218
6.39
7.235
7.549
3.741
6.872
7.038
7.213
6.963
6.625
3.957
6.863
5.881
6.181
5.548
5.805
6.915
6.719
6.705
7.584
7.21
6.274
7.631
7.506
7.249
6.271
6.788
7.225
6.416
6.708
6.846
7.638
7.282
6.803
6.795
6.049
7.245
7.303
7.206
6.964
6.968
6.453
7.109
6.65
6.83
6.122
6.982
7.591
7.689
3.64
6.816
6.306
6.418
7.29
7.684
7.086
6.645
7.081
7.639
6.484
6.508
7.637
6.602
7.368
6.758
6.646
6.29
6.744
6.431
7.578
7.062
6.421
6.2
5.851
7.1
6.745
6.992
6.843
6.733
7.067
4.399
6.065
6.672
7.575
7.092
5.809
6.227
7.243
7.248
6.97
6.191
5.053
6.455
4.52
7.304
6.424
7.176
5.522
6.912
6.158
6.517
7.303
7.603
6.106
7.087
6.106
5.988
7.155
7.472
5.097
5.633
6.37
7.524
7.248
6.075
6.868
4.632
6.134
6.768
7.033
7.019
6.128
6.594
5.566
7.378
6.149
7.025
7.565
7.598
6.194
7.346
5.83
6.915
7.284
6.349
6.83
3.315
4.413
4.924
7.041
7.343
7.251
6.603
7.476
7.111
6.513
7.179
6.241
6.626
7.566
6.32
7.581
5.632
7.532
6.312
6.715
6.655
7.62
7.483
6.884
6.307
6.374
6.455
6.412
6.235
7.46
6.294
7.532
7.607
7.025
7.407
6.926
7.452
6.982
6.963
5.965
6.477
5.35
6.975
6.656
7.578
5.431
6.773
7.464
6.287
7.57
4.224
7.666
6.842
6.969
6.988
5.871
6.673
6.548
7.63
7.108
7.262
7.306
7.344
7.66
3.717
7.574
6.44
7.067
5.953
7.638
6.533
6.503
7.111
6.892
7.23
6.947
6.79
7.37
6.935
5.509
6.993
6.741
6.98
5.691
7.576
7.627
6.571
6.59
6.734
7.637
7.254
7.535
5.616
6.136
6.718
6.344
7.01
7.313
7.44
6.125
6.212
6.341
7.604
6.604
7.105
6.891
6.451
7.536
7.566
7.58
7.199
6.678
6.09
7.039
6.325
6.864
6.575
7.624
4.969
7.429
6.264
7.582
6.989
6.944
6.769
7.274
7.407
6.843
3.917
4.931
7.295
6.511
6.696
6.214
5.731
7.649
5.161
6.565
7.087
7.484
6.403
7.638
5.873
6.302
7.589
5.132
5.323
4.505
5.912
7.395
5.567
7.124
6.474
6.574
7.261
7.495
7.163
6.686
5.908
7.097
4.894
7.095
6.491
6.732
6.949
5.915
6.708
7.403
5.76
4.791
7.158
7.867
6.78
7.555
5.806
6.83
7.543
7.149
6.679
7.864
7.442
5.449
6.887
6.115
6.524
7.568
7.61
7.533
6.24
6.509
5.179
6.51
7.513
7.535
6.027
6.574
7.46
4.922
7.541
5.391
6.608
7.562
7.121
6.737
6.426
5.288
7.304
6.151
6.907
5.995
5.403
6.64
7.602
6.018
6.923
4.182
7.478
4.018
6.819
7.032
7.268
6.798
6.633
7.529
6.911
5.989
5.419
7.649
3.897
6.771
7.502
5.427
6.766
6.733
5.716
4.254
5.042
5.915
6.091
7.608
7.602
3.78
3.578
7.053
7.617
6.939
7.533
7.159
5.347
6.72
6.452
6.457
7.541
5.728
7.579
7.597
4.827
7.62
6.585
7.589
6.769
7.518
4.08
6.186
4.519
7.526
7.856
6.419
5.825
7.87
5.347
6.426
6.869
7.127
6.864
6.141
6.411
5.91
4.1
6.967
6.808
6.24
7.052
6.828
6.15
6.167
7.622
7.041
6.618
6.2
6.447
5.083
5.597
6.62
7.558
7.492
5.698
7.453
7.58
4.708
7.588
7.663
6.527
6.989
7.339
6.923
7.51
7.037
7.1
6.823
3.919
6.494
6.184
7.054
7.13
6.757
6.915
7.132
6.597
7.027
5.457
6.613
7.559
3.551
7.585
6.817
7.182
7.015
5.901
7.652
7.537
7.471
7.417
6.932
6.75
7.536
5.567
6.226
6.381
7.276
6.258
6.146
6.348
6.932
6.962
6.514
6.934
6.697
6.991
7.84
7.493
7.04
7.068
5.76
6.475
7.048
3.966
5.78
7.318
6.995
6.719
7.179
7.59
7.576
6.871
5.919
7.676
4.522
4.975
6.445
6.531
7.459
6.834
6.388
7.336
7.626
5.337
7.486
6.334
6.516
7.565
7.376
3.602
6.32
6.505
5.152
7.489
7.731
6.02
6.26
7.516
7.379
6.22
4.898
5.308
7.174
6.329
6.764
4.643
5.925
5.93
7.297
6.75
6.054
7.552
7.363
7.297
5.871
6.279
6.759
7.51
7.17
7.616
7.143
6.646
6.374
6.909
7.476
7.58
7.142
7.591
6.198
6.294
7.536
6.654
4.498
6.803
6.262
6.652
7.243
7.044
7.519
4.689
7.1
6.85
7.359
4.806
6.68
7.051
4.607
6.125
3.639
6.278
6.979
7.021
6.04
6.777
7.448
7.499
6.093
4.391
7.868
7.581
5.894
6.819
7.321
7.851
5.043
7.824
6.536
7.335
6.95
5.904
6.639
7.145
6.128
6.952
6.71
6.886
7.039
7.517
6.783
7.356
6.465
6.216
5.139
7.285
6.586
4.941
4.28
4.793
6.068
7.552
7.278