# vtk DataFile Version 3.0
3D scalar data
ASCII
DATASET POLYDATA
POINTS 1971 float
-62.71 24.43 2.055
13.98 -27.58 27.83
40.23 -2.995 55.99
-3.599 -31.46 20.94
0.7178 44.57 -22.54
18.08 -16. -35.05
3.912 27.56 -9.191
-45.58 10.56 -4.773
42.96 -25.62 -31.76
7.917 11.33 20.6
15.29 4.02 -30.58
-4.329 21.32 -15.01
38.47 33.57 -0.7413
10.38 54.92 36.21
-50.09 12.16 8.818
-26.55 -43.92 35.95
57.35 -2.244 7.096
53.93 -28. 11.15
-57.25 -13.83 -32.05
-12.15 -41.45 20.14
21.31 13.25 62.02
39.95 50.52 -28.36
4.604 44.18 -10.47
-2.258 34.46 -15.96
-27.25 3.568 -0.8241
-32.7 -22.69 -25.84
21.13 61.56 42.81
-21.07 -61.8 2.86
-23.79 17.58 45.09
16.23 5.954 40.88
-26.54 -51.82 -16.48
56.75 -20.8 -5.611
67.88 40.19 -5.228
13.41 -29.03 51.8
51.7 -41.16 24.11
-3.066 29.25 -26.6
-40.83 -31.32 -29.81
-0.7294 36.05 -54.4
-11.9 11.16 10.59
-9.184 53.69 -24.12
7.584 1.562 29.21
53.53 5.46 46.42
24.94 -20.51 49.49
-23.47 -20.19 -22.88
-26. -15.69 -35.48
43.58 8.61 26.32
68.39 8.725 -8.724
43.88 28.73 11.08
-42.7 3.183 35.25
-24.06 44.8 39.82
1.02 65.4 -26.09
39.61 6.581 -28.08
-4.442 -18.36 -8.501
71.53 -16.1 -32.43
60.14 33.63 38.4
-30.31 22.83 15.76
2.596 29.04 45.82
-7.315 -42.25 -19.39
-30.43 -2.748 16.29
32.68 -8.206 -17.23
46.17 55.65 -16.71
72.62 13.81 32.95
19.99 -48.3 4.807
41.83 -19.91 27.74
10.12 -46.18 -24.17
37.32 -38.47 11.23
-39.72 24.45 -25.3
0.03822 29.84 2.877
46.34 -14.18 -10.67
-30.02 -38.35 4.155
12.54 15.02 75.18
26.92 -0.4719 -65.99
47.67 -13.29 45.08
-38.34 6.552 -44.22
-2.695 16.22 -38.68
-11.23 -47.58 25.85
-47.71 -50.78 -6.11
-23.66 48.5 -5.366
12.65 -9.134 16.61
-52.84 -27.49 -10.92
-37.48 17.94 4.4
40.35 52.72 16.95
-12.46 27.22 -17.7
-14.49 -19.5 17.36
13.95 59.01 48.94
54.13 20.24 46.02
34.74 49.55 -20.97
8.926 0.0282 -41.07
35.99 -3.747 -34.86
-20.76 61.78 26.05
3.949 -33.86 42.98
-55.13 40.24 8.095
13.78 -30.68 -50.3
-40.69 44.07 13.61
5.492 -20.19 18.72
62.86 12.83 33.74
4.919 3.436 -2.338
-7.293 -12.36 -19.45
17.12 48.73 -21.07
-60.48 24.71 -12.88
-5.463 -48.27 -44.62
33.17 28.56 -38.4
-14.98 10.38 58.29
-29.25 -25.51 50.34
-18.74 22.81 18.89
30.46 -34.9 -44.85
-1.398 -45.59 49.19
-55.14 31.31 32.48
-5.966 -51.43 3.369
36.47 19.5 -2.002
12.37 44.72 27.29
69.12 -14.06 -2.502
-55.48 24.63 25.73
63.64 -23.56 42.57
56.38 0.5594 -9.354
5.875 -68.74 -7.022
11.23 -57.81 10.68
22.48 -17.23 12.69
40.3 -60.43 -15.47
32.05 -7.522 50.8
-20.02 -12.42 5.745
45.03 -51.58 -26.86
-27.99 -23.25 -12.41
-11.55 -3.908 27.87
12.88 -18.08 -26.79
-59.79 4.258 17.83
33.02 -49.39 -18.55
14.84 14.38 -52.
27.61 -28.95 8.915
-44.56 -29.21 -44.42
30.18 -30.76 44.77
72.42 -3.176 26.59
-14.13 44.75 4.886
76.21 6.568 -28.12
21.7 9.432 -8.477
-46.04 39.42 -27.91
-55.59 -20.96 29.75
48.6 2.874 -17.48
-28.46 16.97 -23.01
51.78 28.21 17.73
25.23 -0.3512 14.1
-17.27 19.01 18.85
-16.93 -3.527 57.4
3.76 6.306 -47.59
30.66 11.12 18.19
-51.1 3.785 40.91
-58.82 -25.4 -23.32
-27.96 -22.33 -11.02
12.58 36.08 -44.83
0.4406 10.02 9.735
45.26 -0.481 -47.81
-2.967 50.28 48.63
-19.09 -62.81 -19.02
-2.301 13.35 -57.16
40.36 -62.93 0.09981
-13.97 7.509 -1.425
28.53 15.08 -39.03
-1.953 42.48 -1.231
41.26 21.58 -48.22
3.021 42.16 21.62
21.63 42.22 4.775
28.72 -41.93 -33.21
-33.32 62.52 23.37
14.16 11.57 3.09
8.773 -18.21 10.03
-37.17 -19.74 16.9
-16.9 -39.64 -10.36
50.51 -18.61 -49.88
9.2 62.27 -1.754
27.1 39.43 49.93
48.03 19.87 58.74
-14.09 -12.86 -16.27
-26.06 57.62 -14.31
-2.357 -2.651 -42.82
-9.902 68.78 0.6242
-22.79 -0.2006 46.06
4.596 -6.808 -51.95
3.243 -26.19 31.69
27.28 -61.83 -20.4
4.201 -28.36 61.79
12.63 28.82 -58.12
-3.59 -24.14 -62.15
32.96 57.91 -7.594
-30.48 43.74 -15.15
4.637 52.75 -26.17
10.56 -10.12 42.73
-1.088 58.94 52.98
-14.72 64.53 28.28
-36.42 7.356 24.23
22.87 52.87 28.8
9.22 -32.76 -12.37
42.18 33.56 -47.16
-14.23 32.71 59.17
17.82 12.31 -20.05
12.33 -5.248 -10.01
-11.79 -54.67 -23.56
23.06 18.16 -2.817
-47.13 -3.378 -2.049
0.9492 24.08 74.76
-19.04 42.77 5.834
-23.26 -59.32 27.69
31.95 -9.707 6.459
-13.28 42. 18.59
3.749 27.45 -59.52
26.08 51.34 -6.563
-48.09 26.85 46.32
25.54 14.02 76.05
-27.46 14.34 24.05
-8.226 -51.32 12.81
11.26 -37.9 2.662
61.67 -37.38 13.23
48.07 -15.29 -37.88
49.15 16.23 11.28
77.52 -25.9 9.612
-37.21 -5.07 -5.123
39.03 -40.91 46.25
61.69 21.69 -5.947
57.64 47.19 9.752
41.42 -18.81 13.28
16.38 -41.86 15.74
58.62 12.32 -14.97
22.12 -37.57 28.
68.8 -38.03 14.
-7.36 -9.797 10.19
0.2364 -44.49 20.18
40.96 -33.94 -37.82
-39.94 -25.19 -5.948
46.74 3.006 64.41
-35.05 -37.94 -10.62
-51.54 -25.03 -37.
29.46 -37.64 30.62
17.03 -56.61 -29.3
20.35 -21.01 40.92
-49.28 -22.44 16.56
40.55 -41.06 -27.37
41.84 -22.66 -1.534
-14.4 -25.74 65.81
-2.968 -11.63 36.85
-3.54 -16.89 -37.07
9.586 -10.53 -43.86
-31.69 29.51 -54.77
-25.21 4.93 -46.82
-31.33 7.913 -35.14
-42.96 -23.54 35.69
45.22 41.61 8.083
7.294 16.24 -66.35
32.6 -44.9 44.44
38.02 -35.06 3.832
14.61 -29.54 -11.79
-25.48 63.8 13.18
-34.04 -55.97 5.834
-0.3624 47.24 34.
27.19 38.43 54.6
-13.62 8.335 -42.71
64.06 28.93 -35.07
-39.85 5.403 -30.32
68.43 9.585 21.28
5.282 -33.74 -29.54
58.78 26.53 -31.91
60.66 -44.78 27.21
-49.7 27.6 -35.23
-19.31 26.93 -29.76
-6.587 29.25 19.57
33.16 0.07093 24.47
-20.4 35.77 -8.873
-22.8 -28.8 11.45
12.78 -16.39 27.16
46.96 -15.03 -24.48
-22.86 51.56 -31.84
63.27 -35.32 -19.97
60.78 -20.6 45.49
30.59 24.21 12.55
-47.23 11.04 -19.13
-2.559 12.21 50.93
-23.36 19.78 31.21
-20.51 21.73 65.19
-52.48 -1.035 -15.19
-12.94 -2.445 36.51
26.77 -6.151 -37.58
-59.67 -13.96 19.93
80.17 2.555 0.7198
-4.46 -0.3388 -56.64
34.05 -40.39 -49.47
21.06 -39.44 -6.156
23.74 -9.63 -51.78
-54.54 -0.2112 5.929
48.1 36.43 20.41
-20.34 -41.4 -30.36
14.33 38.72 57.28
19.71 11.49 14.49
12.48 25.36 0.4522
9.492 15.31 45.24
6.117 20.8 -22.13
-1.399 46.46 10.05
-17.23 -40.23 10.67
63.8 -6.501 -42.49
19.72 30.81 25.67
14.81 -0.001308 -51.94
-12.26 37.59 -32.92
-46.27 -35.09 11.08
-29.78 -55.15 -15.75
6.89 11.47 26.27
20.91 4.751 29.49
-26.88 0.9333 -22.99
-44.09 36.84 45.63
-26.45 18.07 -9.975
-29.14 46.98 5.857
-35.9 19.84 15.44
-13.53 34.13 -20.26
30.1 21.25 30.81
-10.54 -16.77 -51.66
13.27 59.09 -32.71
-2.45 3.499 21.02
-40.91 -29.37 48.28
47.46 37.41 23.55
-7.267 -28.28 -44.63
42.23 2.093 63.83
-49.76 30.77 6.675
-15.06 -24.21 -40.86
-32.06 22.6 -6.359
20.92 38.42 18.49
6.293 -7.307 -22.77
-35.99 52.6 -5.044
18.18 -44.37 -51.75
9.113 58.66 -15.36
-22.01 59.13 0.4515
15.78 57.84 -30.56
-30.89 -22.05 29.08
-2.796 -40.75 -5.752
78.76 4.335 -11.02
53.19 49.57 22.26
-8.728 -29.05 -2.032
41.9 37.64 -32.53
44.3 18.71 18.35
-6.397 -39.38 60.66
53.49 32.23 -12.04
-11.12 -0.9081 73.46
20.54 39.09 66.34
35.83 15.76 41.25
63.03 -47.88 3.615
-1.923 42.01 -25.34
31.51 5.23 -16.36
40.34 -23.96 48.95
20.54 -14.83 -15.68
28.19 4.194 -29.73
23.77 -17.25 -38.37
-7.535 1.6 18.12
43.66 38.51 29.61
26.74 23.4 -15.92
40.98 -0.6255 43.18
24.67 60.59 17.71
-54.76 41.66 -14.65
-4.296 -7.037 -30.85
10.34 -21.9 50.5
15.46 -7.262 -60.46
8.301 34.35 -19.67
-11.81 24.2 55.03
40.2 -6.992 -32.32
-15.97 -42. 32.9
-21.61 -30.74 -3.207
9.026 16.01 43.93
-30.5 58.83 -15.39
2.651 4.769 41.5
0.5848 -5.182 58.69
12.35 66.56 11.81
6.038 16.95 -24.12
38.48 -8.734 -4.701
46.39 9.371 52.67
11.45 56.03 16.12
16.27 0.8828 -27.95
37.54 7.476 -41.18
0.9662 -57.47 16.69
-26.27 48.84 26.66
19.72 -9.885 5.909
-15.29 -12.96 44.91
-37.14 31.92 7.522
-11.05 -56.6 39.04
-13.72 64.79 14.28
9.592 -65.75 -19.82
-1.202 29.24 61.99
-38.58 4.816 6.635
34.96 -31.02 39.38
20.65 64.7 -9.649
-8.743 -60.5 26.58
-16.21 31.63 27.54
56.24 -19.47 -3.414
10.82 42.82 -32.26
-5.466 -5.617 -9.467
28.29 41.43 -17.85
76.25 -1.127 31.45
-43.12 31.28 -5.675
-38.11 -39.48 15.43
-10. 25.24 41.95
-16.49 -32.27 50.27
-33.49 37.52 34.55
60.89 -14.34 9.435
64.54 -1.951 1.967
14.17 -21.6 3.874
-36.19 -12.69 -9.995
52.04 -57.38 -6.304
-53.14 40.8 21.44
31.19 7.341 3.772
-29.65 -36.33 -23.04
13.31 -45.03 15.88
-5.879 29.44 68.53
-51.58 18.36 36.26
36.65 65.29 10.69
-29.74 14.47 57.08
68.93 33.57 10.32
1.086 40.55 -38.61
34.7 -17.6 -39.4
63.25 45.54 8.734
48.33 -11.29 4.636
11.9 -67.02 7.618
-26.96 3.449 -0.4533
41.45 -25.14 50.29
9.393 -47.43 -6.175
18.52 -22.91 17.45
45.44 58.98 6.942
12.8 -35.1 0.04308
30.64 -39.45 17.6
-15.92 -32.74 -23.07
-9.707 -66.08 -4.143
49.01 -10.64 -12.43
47.48 11.5 -7.383
-36.15 -25.8 12.32
63.59 -16.67 -16.18
-40.08 -14.61 3.829
14.65 -5.314 61.58
23.15 -65.26 -17.77
27.86 -5.024 60.14
-3.202 -20.73 7.439
61.81 -35.41 36.86
56.16 -20.88 -28.22
-6.377 -27.99 -31.23
50.9 -57.64 9.288
-42.51 -2.027 -52.24
62.21 10.84 7.804
-8.958 -15.65 57.35
-32.57 -52.65 19.31
18.65 -40.44 -19.27
29.46 -23.01 -10.38
-37.2 6.798 61.64
38.86 16.37 68.22
9.786 -33.4 -58.5
24.85 -52.19 -41.47
24.01 -4.384 -38.06
44.16 8.789 0.9773
-34.33 -27.64 52.25
-44.71 -5.45 -23.37
34.71 -35.4 -7.358
-27.43 26.76 0.4479
-12.4 -14.67 -38.09
3.125 42.14 41.26
-14.95 11.82 -51.48
32.29 -24.35 27.73
23.9 -37.06 55.84
-0.6154 -8.306 35.41
-44.53 -15.97 -46.61
39.87 18.84 -47.17
52.09 46.14 36.31
-33.72 -10.64 -26.63
-49.92 -30.96 37.01
37.55 -49.32 20.56
41.94 36.98 -19.56
24.27 -35.29 5.951
-12.81 12.6 -62.64
-46.55 -37.38 -3.354
16.8 -59.36 34.67
-23.11 32.42 -11.3
39.84 27.63 -26.
-10.07 34.72 45.98
-5.776 24.15 23.73
8.18 -7.725 -34.27
61.31 39.3 22.92
11.94 -47.11 37.61
49.38 -39.81 14.55
57.43 -30.44 24.51
47.26 -5.427 18.55
-10.87 10.38 -28.67
35.34 8.973 -56.08
53.5 -33.12 -41.1
-25.15 -28.83 25.02
-0.7476 -5.012 33.72
-16.25 23.71 -3.712
-7.231 46.24 60.99
48.91 -18.01 40.4
-34.15 -13.67 -58.44
-28.51 37.43 -51.6
29.86 -55.61 28.16
-63.9 3.512 -20.88
40.77 -9.518 -46.29
26.74 -22.54 -23.46
55.78 9.433 -27.85
-14.93 8.474 26.79
33.3 29.75 64.92
-28.9 45.13 -41.97
36.26 30.02 22.07
66.72 -41.8 -10.6
-46.27 -5.31 -16.28
-25.39 24.22 64.39
-6.754 28.03 -50.17
-15.27 11.94 56.38
-54.73 -40.33 -17.62
-1.969 59.67 8.896
-29.31 11.84 -35.67
9.605 -23.73 -39.76
-29.05 -33.29 -21.67
15.79 16.31 34.78
71.88 19.31 -30.22
-57.7 9.923 -9.795
-44.78 24.21 -48.11
26.81 -34.33 -16.23
-34.61 6.127 -11.96
43.7 31.55 51.68
-19.99 -53.92 2.366
7.174 26.12 -34.25
[...]
POINT_DATA 1971
SCALARS radius float
LOOKUP_TABLE default
7.811
5.686
5.91
7.481
5.886
6.756
6.866
7.074
7.634
7.326
7.567
5.707
7.529
7.572
7.896
7.676
7.471
7.743
7.595
6.458
7.871
6.609
7.746
5.778
7.673
5.987
7.869
7.84
7.6
5.981
7.086
7.596
7.619
7.687
7.642
6.797
7.916
7.579
7.639
7.548
7.425
7.836
7.899
7.338
7.87
7.762
7.906
6.049
7.611
6.841
7.849
7.817
6.597
7.891
7.626
7.79
7.633
7.417
7.361
7.714
7.641
7.61
7.713
6.66
7.083
7.859
7.654
7.465
7.162
7.633
7.594
7.559
7.455
7.614
7.605
7.123
7.606
6.583
7.383
7.886
6.976
7.883
7.444
7.718
7.822
7.856
7.648
6.903
6.592
7.879
7.715
7.836
7.204
7.884
7.537
7.919
7.531
7.57
7.674
7.605
7.879
7.764
7.517
7.907
7.35
7.687
7.812
7.667
7.728
7.377
7.816
7.508
7.834
7.232
7.545
7.653
7.821
7.402
7.672
7.551
7.493
7.738
7.661
6.829
7.527
7.669
7.582
6.993
7.544
7.479
6.74
6.761
7.837
7.606
7.118
7.607
7.61
7.493
7.544
7.647
7.171
7.431
7.65
7.865
7.31
7.877
7.581
6.536
7.82
7.604
7.247
7.611
7.847
7.572
7.184
7.569
7.554
7.508
7.542
5.898
7.487
7.876
7.817
7.459
6.779
7.776
7.885
7.573
7.874
7.544
7.409
7.388
7.549
7.134
7.674
7.129
6.564
7.325
7.868
7.91
7.87
7.877
7.859
7.939
6.749
7.121
7.86
7.62
7.455
6.663
7.755
7.295
6.883
7.196
7.559
7.243
7.506
7.854
7.749
7.758
7.81
7.403
7.818
7.612
7.81
7.673
7.667
6.884
7.802
7.686
7.783
6.69
7.746
7.7
7.426
7.361
7.663
7.707
7.55
7.01
7.294
7.658
7.604
7.397
6.959
7.668
7.619
7.521
7.629
7.603
7.89
7.652
7.62
7.775
7.673
7.549
7.725
7.544
7.01
7.623
7.629
6.47
7.553
7.677
7.647
7.612
7.604
7.574
7.495
7.886
7.639
7.628
7.522
7.856
7.53
7.603
7.137
7.348
7.633
7.591
7.605
7.464
7.485
7.401
7.629
6.666
6.696
7.172
7.626
7.431
7.58
7.359
7.644
7.575
7.808
7.588
7.385
7.482
7.857
7.565
7.881
7.612
7.435
7.173
7.063
6.979
7.676
7.668
7.557
7.244
7.399
7.77
7.718
7.623
7.612
7.511
7.462
7.179
7.267
7.534
7.417
7.327
7.274
7.795
7.572
7.288
7.644
7.548
7.284
7.348
7.484
7.571
7.186
7.473
7.903
7.532
7.58
7.154
7.903
7.744
7.489
7.401
7.687
7.636
7.847
6.822
7.853
7.551
7.783
7.547
7.826
7.482
6.52
6.36
7.842
7.898
6.962
7.85
7.783
7.852
7.684
7.378
7.301
7.307
6.819
6.783
7.013
7.532
7.282
7.863
7.896
7.249
6.884
7.861
7.9
7.821
7.508
7.625
7.806
7.056
7.771
7.741
6.861
7.889
7.882
7.698
7.675
7.892
7.853
7.39
6.962
7.878
7.781
6.906
7.781
7.818
7.175
7.754
7.694
7.241
7.708
7.906
7.655
7.781
7.776
7.822
7.885
7.438
7.641
7.767
7.576
7.881
7.523
7.913
7.7
7.675
7.845
6.899
7.626
7.775
7.614
7.529
7.605
7.025
7.684
7.635
7.773
7.744
7.685
7.31
7.873
7.661
7.72
7.66
7.522
7.69
7.747
7.364
7.612
6.93
7.593
7.626
7.716
7.686
7.479
7.364
7.679
7.62
7.467
7.575
7.688
7.233
7.613
7.723
7.285
7.637
6.813
7.602
7.743
7.44
7.582
7.485
7.609
7.64
7.669
7.605
7.616
7.555
7.639
7.65
7.574
7.576
7.545
7.62
7.628
7.315
7.591
7.549
7.319
7.656
7.66
7.638
7.596
7.626
7.571
7.516
7.631
7.686
7.583
7.613
7.606
7.651
7.215
7.514
7.601
7.659
6.263
7.686
7.54
7.506
7.621
7.578
7.591
7.112
7.423
7.602
7.885
7.601
7.47
7.586
7.591
7.242
7.435
7.654
7.255
7.612
7.439
7.494
7.626
7.611
7.594
7.622
7.748
7.548
7.412
7.567
7.662
7.634
7.447
7.012
7.648
7.537
7.551
7.522
7.602
7.672
7.568
7.588
7.557
7.458
7.462
7.532
7.261
7.559
7.465
7.377
7.504
7.482
7.236
7.066
7.594
7.573
7.596
7.503
7.514
7.569
7.901
7.078
7.454
7.407
7.406
7.558
7.012
7.747
7.581
7.641
7.802
7.564
7.602
6.977
6.273
7.836
7.659
7.632
7.309
7.51
7.521
7.627
7.872
7.263
7.375
7.786
7.599
7.14
7.929
7.516
7.855
6.303
7.114
7.577
7.482
7.872
7.556
7.363
7.684
7.662
7.549
7.585
7.735
6.583
7.54
7.898
7.618
7.107
7.909
7.882
7.066
7.862
7.651
7.14
7.888
7.38
7.418
7.903
7.837
7.069
7.224
7.886
7.872
7.116
7.023
7.301
7.837
7.093
7.786
7.872
7.857
7.646
7.597
7.585
7.895
7.845
7.876
7.834
7.58
7.928
7.461
7.746
6.797
7.821
7.613
7.091
7.899
7.353
7.513
7.391
7.819
7.868
7.587
7.879
7.488
7.823
7.077
7.163
7.885
7.079
7.081
7.456
7.838
7.859
7.702
7.506
7.542
7.904
7.891
7.834
7.897
7.681
7.845
7.58
7.896
7.599
7.926
7.693
7.774
7.849
7.843
7.875
7.839
7.878
7.624
7.88
7.899
7.886
7.71
7.892
7.539
7.782
7.552
7.795
7.884
7.622
7.865
7.379
7.83
7.809
7.793
7.825
7.875
7.853
7.844
7.408
7.581
7.729
7.481
7.877
7.868
7.383
7.516
7.764
7.556
7.591
7.862
7.903
7.824
7.256
7.811
7.653
7.851
7.482
7.863
7.732
7.433
7.76
7.555
7.713
7.851
7.651
7.715
7.842
7.853
7.712
7.802
7.246
7.881
7.604
7.454
7.441
7.867
7.775
7.872
7.726
7.754
7.727
7.823
7.67
7.708
7.219
7.111
7.133
7.695
7.836
7.61
7.688
7.635
7.736
7.78
7.855
7.294
7.633
7.808
7.63
7.721
7.661
7.504
7.7
7.703
7.297
7.677
7.688
7.786
7.786
7.708
7.695
7.613
7.653
7.721
7.67
7.73
7.207
7.471
7.606
7.333
7.709
7.734
7.727
7.724
7.76
7.378
7.691
7.715
7.209
7.397
7.683
7.426
7.784
7.704
7.578
7.658
7.656
7.638
7.598
7.596
7.727
7.5
7.707
7.653
7.766
7.603
7.677
7.715
7.479
7.697
7.509
7.656
7.649
7.441
7.593
7.67
7.631
7.678
7.626
7.657
7.677
7.667
7.619
7.657
7.606
7.642
7.649
7.609
7.623
7.616
7.635
7.649
7.614
7.565
7.63
7.676
7.636
7.598
7.347
7.602
7.575
7.228
7.696
7.611
7.63
7.586
7.6
7.6
7.615
7.3
7.577
7.639
7.482
7.311
7.634
7.614
7.665
7.553
7.572
7.639
7.579
7.646
7.611
7.662
7.659
7.799
7.561
7.615
7.574
7.634
7.433
7.356
7.613
7.656
7.639
7.745
7.621
7.557
7.397
7.605
7.62
7.56
7.545
7.674
7.602
7.623
7.581
7.596
7.573
7.632
7.705
7.758
7.614
7.658
7.614
7.552
7.524
7.218
7.622
7.298
7.645
7.659
7.553
7.439
7.594
7.558
7.392
7.403
7.613
7.825
7.376
7.648
7.61
7.542
7.578
7.627
7.44
7.554
7.599
7.625
7.596
7.628
7.278
7.633
7.611
7.505
7.64
7.585
7.567
7.552
7.601
7.392
7.724
7.567
7.631
7.64
7.464
7.59
7.59
7.529
7.597
7.557
7.619
7.68
7.348
7.576
7.583
7.603
7.651
7.464
7.363
7.63
7.587
7.645
7.6
7.676
7.568
7.61
7.352
7.311
7.639
7.52
7.591
7.426
7.589
7.632
7.639
7.631
7.591
7.629
7.363
7.623
7.625
7.558
7.532
7.512
7.544
7.588
7.619
7.584
7.549
7.592
7.592
7.494
7.608
7.61
7.496
7.507
7.286
7.635
7.501
7.579
7.777
7.667
7.711
7.319
7.619
7.564
7.297
6.871
7.503
7.258
7.615
7.055
7.531
7.519
7.562
7.639
7.641
7.404
7.534
7.56
7.752
7.351
7.447
7.558
7.483
7.618
7.339
7.464
7.583
7.621
7.196
7.727
7.615
7.32
7.614
7.904
6.876
7.532
7.514
7.598
7.593
7.495
7.53
7.638
7.5
7.579
7.814
7.439
7.356
7.56
7.518
7.913
7.523
7.665
7.53
6.673
7.509
7.578
7.562
7.305
7.229
7.572
7.55
7.618
7.476
7.561
7.276
7.493
7.455
7.308
7.392
7.544
7.452
7.454
7.464
7.76
7.267
6.659
7.888
7.592
7.47
7.518
7.895
7.873
5.613
7.899
7.795
7.463
7.238
7.566
7.276
7.34
6.469
7.412
6.893
7.583
7.512
7.696
7.913
7.568
7.442
7.35
7.859
7.846
7.471
7.798
7.477
7.101
7.246
7.82
7.471
6.888
7.56
7.645
7.898
7.851
7.391
6.636
7.611
7.84
6.836
7.845
7.704
7.841
7.897
7.732
7.85
7.901
7.384
7.863
7.849
7.802
7.826
7.883
7.412
7.884
7.791
7.412
7.855
7.889
7.894
7.922
7.878
7.837
7.251
7.825
7.866
7.869
7.645
7.909
7.817
7.878
7.94
7.887
7.355
7.839
7.76
7.813
7.867
7.503
7.823
7.284
7.731
7.858
7.741
7.646
7.789
7.858
7.845
7.332
7.877
7.835
7.88
7.86
7.932
7.885
7.868
7.845
7.383
7.893
7.904
7.729
7.745
7.612
7.874
7.775
7.865
7.858
7.823
7.536
7.886
7.884
7.356
7.859
7.882
7.806
7.856
7.358
7.938
7.642
7.827
7.885
7.681
7.706
7.864
7.619
7.597
7.827
7.87
7.839
7.634
7.866
7.84
7.857
7.774
7.897
7.817
7.889
7.848
7.817
7.863
7.863
7.817
7.907
7.895
7.751
7.89
7.645
7.832
7.894
7.822
7.397
7.839
7.833
7.834
7.868
7.655
7.861
7.862
7.842
7.88
7.834
7.615
7.514
7.888
7.866
7.834
7.854
7.723
7.873
7.86
7.857
7.547
7.844
7.923
7.887
7.729
7.873
7.845
7.653
7.89
7.864
7.876
7.81
7.849
7.855
7.854
7.837
7.873
7.797
7.904
7.816
7.852
7.416
7.738
7.779
7.482
7.813
7.846
7.559
7.885
7.864
7.759
7.87
7.789
7.814
7.832
7.816
7.832
7.825
7.668
7.583
7.861
7.758
7.831
7.853
7.853
7.837
7.794
7.86
7.8
7.61
7.772
7.905
7.838
7.88
7.851
7.593
7.771
7.755
7.726
7.834
7.77
7.849
7.855
7.783
7.799
7.852
7.821
7.891
7.75
7.724
7.812
7.658
7.606
7.83
7.811
7.818
7.718
7.752
7.798
7.73
7.881
7.706
7.762
7.785
7.84
7.782
7.803
7.657
7.785
7.67
7.852
7.766
7.678
7.794
7.724
7.72
7.74
7.647
7.751
7.724
7.809
7.739
7.702
7.824
7.799
7.721
7.722
7.623
7.766
7.8
7.756
7.801
7.782
7.752
7.632
7.759
7.718
7.688
7.729
7.77
7.807
7.649
7.733
7.751
7.748
7.437
7.79
7.679
7.678
7.726
7.632
7.502
7.771
7.774
7.768
7.72
7.724
7.774
7.737
7.725
7.755
7.704
7.667
7.644
7.714
7.726
7.672
7.702
7.674
7.786
7.663
7.599
7.767
7.545
7.568
7.632
7.695
7.527
7.69
7.722
7.68
7.606
7.741
7.657
7.664
7.461
7.66
7.673
7.68
7.673
7.646
7.777
7.531
7.639
7.675
7.672
7.652
7.715
7.641
7.649
7.712
7.642
7.7
7.639
7.697
7.653
7.645
7.675
7.684
7.652
7.643
7.505
7.504
7.645
7.439
7.701
7.736
7.621
7.463
7.626
7.424
7.624
7.642
7.662
7.658
7.567
7.671
7.709
7.589
7.642
7.608
7.483
7.553
7.713
7.584
7.472
7.692
7.623
7.567
7.546
7.59
7.564
7.698
7.662
7.689
7.602
7.587
7.568
7.65
7.611
7.586
7.624
7.683
7.605
7.598
7.597
7.49
7.598
7.614
7.608
7.648
7.649
7.647
7.482
7.526
7.598
7.661
7.635
7.64
7.597
7.404
7.561
7.617
7.686
7.604
7.626
7.202
7.37
7.635
7.699
7.607
7.649
7.471
7.631
7.56
7.591
7.637
7.608
7.701
7.602
7.557
7.56
7.624
7.638
7.633
7.536
7.629
7.71
7.591
7.602
7.647
7.641
7.481
7.564
7.585
7.604
7.656
7.676
7.659
7.602
7.653
7.598
7.556
7.664
7.634
7.606
7.649
7.635
7.584
7.581
7.669
7.702
7.559
7.662
7.647
7.68
7.591
7.569
7.588
7.605
7.306
7.606
7.647
7.645
7.608
7.522
7.615
7.64
7.591
7.677
7.669
7.606
7.636
7.601
7.532
7.589
7.554
7.659
7.624
7.652
7.542
7.572
7.582
7.676
7.622
7.473
7.569
7.6
7.682
6.925
7.588
7.641
7.619
7.648
7.548
7.644
7.6
7.65
7.644
7.6
7.649
7.589
7.514
7.622
7.609
7.63
7.427
7.579
7.676
7.563
7.595
7.654
7.64
7.659
7.63
7.642
7.638
7.266
7.545
7.617
7.534
7.58
7.574
7.575
7.599
7.643
7.615
7.424
7.514
7.718
7.46
7.684
7.622
7.678
7.671
7.646
7.585
7.666
7.594
7.568
7.44
7.615
7.624
7.656
7.641
7.496
7.596
7.584
7.563
7.635
7.645
7.623
7.578
7.44
7.651
7.555
7.572
7.706
7.544
7.602
7.627
7.396
7.591
7.56
7.577
7.6
7.591
7.672
7.643
7.547
7.434
7.604
7.513
7.632
7.587
7.611
7.582
7.548
7.594
7.612
7.688
7.613
7.533
7.553
7.54
7.66
7.624
7.574
7.66
7.327
7.622
7.651
7.586
7.576
7.612
7.613
7.471
7.586
7.571
7.472
7.629
7.453
7.593
7.651
7.658
7.677
7.54
7.615
7.639
7.278
7.653
7.629
7.526
7.584
7.495
7.619
7.609
7.595
7.527
7.625
7.607
7.57
7.405
7.563
7.496
7.605
7.585
7.675
7.348
7.622
7.341
7.624
7.297
7.54
7.626
7.534
7.633
7.546
7.56
7.461
7.634
7.58
7.652
7.645
7.337
7.592
7.44
7.611
7.585
7.602
7.577
7.639
7.622
7.475
7.601
7.692
7.572
7.562
7.592
7.538
7.516
7.606
7.47
7.655
7.558
7.643
7.375
7.645
7.545
7.603
7.512
7.478
7.618
7.603
7.531
7.448
7.461
7.564
7.593
7.259
7.616
7.611
7.559
7.554
7.595
7.63
7.569
7.646
7.618
7.348
7.544
7.608
7.615
7.362
7.633
7.645
7.492
7.627
7.561
7.553
7.637
7.523
7.529
7.47
7.618
7.576
7.443
7.666
7.516
7.645
7.491
7.571
7.52
7.274
7.443
7.642
7.408
7.682
7.573
7.54
7.614
7.682
7.55
7.495
7.604
7.566
7.306
7.542
7.454
7.674
7.585
7.572
7.561
7.563
7.588
7.528
7.629
7.577
7.372
7.623
7.597
7.545
7.579
7.612
7.493
7.608
7.589
7.557
7.324
7.565
7.615
7.596
7.652
7.451
7.588
7.408
7.549
7.439
7.598
7.6
7.542
7.526
7.593
7.598
7.553
7.539
7.602
7.663
7.563
7.585
7.477
7.509
7.567
7.576
7.62
7.594
7.439
7.378
7.601
7.512
7.379
7.638
7.591
7.549
7.442
7.608
7.431
7.542
7.439
7.502
7.595
7.619
7.545
7.535
7.495
7.39
7.552
7.454
7.585
7.503
7.582
7.601
7.548
7.633
7.593
7.414
7.536
7.593
7.515
7.575
7.259
7.548
7.531
7.459
7.463
7.511
7.474
7.605
7.462
7.492
7.472
7.526
7.497
7.395
7.474
7.307
7.508
7.373
7.452
7.438
7.565
7.427
7.519
7.465
7.34
7.502
7.464
7.335
7.357
7.412
7.433
7.225
7.436
7.338
7.406
7.251
7.444
7.262
7.332
7.348
7.382
7.469
7.276
7.221
7.376
7.158
7.267
7.069
7.412
7.244
7.158
6.971
7.082
7.335
7.068
7.104
6.523
7.252
7.02
7.015
7.159
7.401
7.123
6.783
7.031
6.705
6.806
6.658
7.015
6.828
6.92
7.124
7.285
7.004
6.922
6.893
6.277
6.805
6.952
6.379
5.952
5.926
5.739
6.649
SCALARS O2 float
LOOKUP_TABLE default
6.958e-6
5.736e-6
6.556e-6
5.73e-6
6.168e-6
5.896e-6
5.516e-6
6.144e-6
6.269e-6
5.305e-6
5.67e-6
5.606e-6
5.888e-6
6.408e-6
6.252e-6
6.617e-6
6.065e-6
6.096e-6
6.97e-6
6.163e-6
6.313e-6
6.932e-6
5.904e-6
5.863e-6
5.582e-6
6.179e-6
6.962e-6
6.963e-6
6.147e-6
5.7e-6
6.693e-6
6.167e-6
6.967e-6
6.341e-6
6.527e-6
5.942e-6
6.587e-6
6.97e-6
5.41e-6
6.492e-6
5.39e-6
6.345e-6
6.236e-6
5.908e-6
6.121e-6
5.722e-6
6.455e-6
5.887e-6
6.398e-6
6.581e-6
6.963e-6
5.853e-6
5.497e-6
6.968e-6
6.962e-6
5.877e-6
5.957e-6
6.162e-6
5.705e-6
5.615e-6
6.942e-6
6.961e-6
6.114e-6
5.956e-6
6.234e-6
5.967e-6
6.275e-6
5.483e-6
5.883e-6
6.102e-6
6.965e-6
6.974e-6
6.343e-6
6.52e-6
5.93e-6
6.489e-6
6.949e-6
6.322e-6
5.363e-6
6.592e-6
5.97e-6
6.448e-6
5.802e-6
5.514e-6
6.975e-6
6.502e-6
6.535e-6
5.92e-6
6.073e-6
6.957e-6
6.168e-6
6.97e-6
6.56e-6
6.493e-6
5.513e-6
6.402e-6
5.244e-6
5.597e-6
6.212e-6
6.974e-6
6.964e-6
6.285e-6
6.36e-6
6.707e-6
5.707e-6
6.659e-6
6.948e-6
6.956e-6
6.203e-6
5.651e-6
5.857e-6
6.518e-6
6.927e-6
6.988e-6
5.974e-6
6.946e-6
6.521e-6
5.431e-6
6.96e-6
6.284e-6
5.506e-6
6.963e-6
5.886e-6
5.567e-6
5.714e-6
6.638e-6
6.317e-6
6.464e-6
5.621e-6
6.978e-6
6.408e-6
6.95e-6
5.971e-6
6.95e-6
5.328e-6
6.845e-6
6.963e-6
5.862e-6
5.892e-6
6.079e-6
5.404e-6
5.653e-6
6.346e-6
6.147e-6
5.472e-6
6.93e-6
6.972e-6
5.867e-6
6.679e-6
5.28e-6
6.547e-6
6.536e-6
6.967e-6
6.613e-6
6.974e-6
5.409e-6
6.02e-6
5.766e-6
6.675e-6
5.811e-6
5.741e-6
6.359e-6
6.955e-6
5.286e-6
5.43e-6
5.973e-6
5.96e-6
6.975e-6
6.348e-6
6.356e-6
6.965e-6
5.622e-6
6.928e-6
5.994e-6
6.96e-6
6.093e-6
6.293e-6
5.688e-6
6.956e-6
6.602e-6
6.961e-6
6.941e-6
6.585e-6
6.356e-6
6.547e-6
5.735e-6
6.956e-6
6.969e-6
5.888e-6
6.255e-6
5.67e-6
6.974e-6
6.592e-6
5.487e-6
5.32e-6
6.923e-6
5.454e-6
6.096e-6
6.956e-6
5.971e-6
6.982e-6
5.476e-6
5.91e-6
6.96e-6
6.136e-6
6.963e-6
6.969e-6
5.819e-6
6.302e-6
5.745e-6
6.574e-6
6.522e-6
5.795e-6
6.972e-6
5.87e-6
6.962e-6
6.219e-6
6.959e-6
5.73e-6
5.974e-6
6.194e-6
6.01e-6
6.966e-6
5.359e-6
6.176e-6
6.639e-6
6.072e-6
6.986e-6
6.249e-6
6.972e-6
6.161e-6
6.693e-6
5.861e-6
6.422e-6
6.474e-6
5.779e-6
6.978e-6
5.63e-6
5.981e-6
5.977e-6
6.973e-6
6.412e-6
6.102e-6
6.463e-6
6.165e-6
6.957e-6
6.958e-6
5.9e-6
5.612e-6
6.958e-6
6.946e-6
6.108e-6
6.473e-6
6.139e-6
6.953e-6
6.196e-6
6.599e-6
6.058e-6
6.631e-6
6.971e-6
6.965e-6
5.998e-6
5.593e-6
5.508e-6
5.89e-6
5.85e-6
5.559e-6
6.161e-6
6.823e-6
6.966e-6
6.969e-6
5.575e-6
6.25e-6
5.934e-6
5.822e-6
6.957e-6
6.424e-6
5.616e-6
5.916e-6
6.962e-6
6.965e-6
6.418e-6
6.973e-6
5.93e-6
6.306e-6
6.376e-6
6.202e-6
6.413e-6
6.395e-6
5.286e-6
5.391e-6
5.743e-6
5.6e-6
5.841e-6
5.976e-6
6.971e-6
5.567e-6
6.343e-6
6.334e-6
6.612e-6
6.951e-6
5.358e-6
5.417e-6
5.802e-6
6.972e-6
5.8e-6
6.281e-6
5.958e-6
6.014e-6
5.621e-6
6.393e-6
6.897e-6
5.395e-6
6.977e-6
6.229e-6
6.326e-6
6.963e-6
6.511e-6
6.254e-6
5.943e-6
5.674e-6
5.569e-6
6.756e-6
6.973e-6
6.404e-6
6.716e-6
6.939e-6
5.978e-6
5.832e-6
6.961e-6
6.957e-6
5.6e-6
6.726e-6
5.715e-6
6.969e-6
6.286e-6
6.967e-6
6.95e-6
5.889e-6
6.972e-6
6.15e-6
5.531e-6
6.447e-6
5.538e-6
5.768e-6
6.035e-6
5.417e-6
6.237e-6
5.689e-6
5.971e-6
6.415e-6
6.982e-6
5.749e-6
6.123e-6
6.642e-6
5.804e-6
6.322e-6
6.113e-6
6.358e-6
5.84e-6
5.731e-6
6.957e-6
5.688e-6
6.204e-6
6.55e-6
5.593e-6
5.582e-6
6.498e-6
6.102e-6
5.643e-6
6.249e-6
6.527e-6
6.442e-6
5.368e-6
5.929e-6
6.086e-6
6.986e-6
6.942e-6
6.963e-6
6.567e-6
5.814e-6
6.279e-6
6.58e-6
6.954e-6
5.855e-6
6.098e-6
6.339e-6
5.386e-6
6.121e-6
6.975e-6
6.238e-6
6.446e-6
5.931e-6
6.726e-6
6.363e-6
6.164e-6
6.221e-6
5.461e-6
5.897e-6
6.957e-6
6.95e-6
5.402e-6
6.228e-6
6.083e-6
6.948e-6
6.638e-6
6.971e-6
6.948e-6
6.961e-6
6.457e-6
6.255e-6
6.959e-6
5.752e-6
6.972e-6
5.579e-6
6.504e-6
6.045e-6
5.525e-6
6.969e-6
5.704e-6
5.973e-6
5.989e-6
6.945e-6
5.927e-6
5.788e-6
6.074e-6
6.438e-6
5.897e-6
6.326e-6
6.965e-6
6.485e-6
5.455e-6
6.961e-6
6.463e-6
6.039e-6
6.958e-6
6.972e-6
6.147e-6
6.398e-6
6.966e-6
5.944e-6
5.616e-6
6.977e-6
6.967e-6
6.953e-6
6.963e-6
5.886e-6
5.648e-6
6.97e-6
6.279e-6
5.886e-6
5.788e-6
6.052e-6
6.032e-6
6.387e-6
5.774e-6
6.959e-6
5.61e-6
6.954e-6
6.586e-6
6.962e-6
6.042e-6
6.965e-6
6.459e-6
6.351e-6
5.705e-6
6.756e-6
6.553e-6
6.968e-6
5.893e-6
6.057e-6
6.132e-6
5.569e-6
5.738e-6
6.956e-6
6.525e-6
6.314e-6
6.384e-6
5.743e-6
5.693e-6
6.718e-6
6.981e-6
5.936e-6
5.584e-6
5.586e-6
6.975e-6
6.307e-6
6.97e-6
6.97e-6
6.96e-6
6.962e-6
6.514e-6
5.8e-6
6.268e-6
5.624e-6
6.961e-6
6.969e-6
5.764e-6
6.975e-6
6.231e-6
6.966e-6
6.474e-6
6.306e-6
6.972e-6
6.312e-6
6.093e-6
6.007e-6
6.162e-6
5.516e-6
6.97e-6
6.571e-6
6.948e-6
5.848e-6
5.834e-6
6.761e-6
6.454e-6
5.941e-6
6.214e-6
5.724e-6
5.528e-6
5.702e-6
6.938e-6
5.677e-6
6.216e-6
5.475e-6
5.791e-6
6.457e-6
6.344e-6
5.224e-6
5.728e-6
6.958e-6
6.964e-6
6.087e-6
6.963e-6
6.97e-6
6.19e-6
6.333e-6
5.905e-6
5.548e-6
5.497e-6
6.714e-6
6.957e-6
6.321e-6
5.596e-6
6.956e-6
5.431e-6
6.191e-6
6.594e-6
6.979e-6
5.843e-6
6.969e-6
5.865e-6
6.576e-6
6.963e-6
5.837e-6
6.991e-6
6.962e-6
6.567e-6
6.367e-6
5.38e-6
6.973e-6
5.695e-6
6.972e-6
5.447e-6
6.316e-6
6.965e-6
5.757e-6
5.909e-6
6.296e-6
6.732e-6
6.13e-6
6.946e-6
6.302e-6
6.145e-6
5.517e-6
6.509e-6
6.949e-6
6.969e-6
5.638e-6
5.405e-6
5.67e-6
6.329e-6
6.15e-6
6.686e-6
6.576e-6
6.308e-6
6.395e-6
6.976e-6
5.355e-6
6.942e-6
6.719e-6
6.924e-6
5.733e-6
6.338e-6
6.956e-6
5.562e-6
5.723e-6
5.945e-6
6.971e-6
5.648e-6
5.485e-6
5.568e-6
6.008e-6
5.712e-6
5.711e-6
6.674e-6
5.965e-6
5.363e-6
6.966e-6
6.648e-6
6.72e-6
6.438e-6
6.792e-6
5.82e-6
6.434e-6
6.359e-6
6.943e-6
5.555e-6
5.341e-6
6.54e-6
6.27e-6
6.399e-6
6.964e-6
5.433e-6
6.773e-6
5.519e-6
5.87e-6
6.965e-6
5.333e-6
6.247e-6
5.643e-6
5.925e-6
5.282e-6
5.457e-6
6.417e-6
6.638e-6
5.828e-6
6.948e-6
6.952e-6
6.593e-6
5.623e-6
6.003e-6
5.643e-6
6.393e-6
6.051e-6
5.902e-6
6.321e-6
5.549e-6
6.967e-6
5.74e-6
6.456e-6
5.309e-6
6.36e-6
5.555e-6
6.976e-6
6.943e-6
6.48e-6
6.439e-6
5.994e-6
6.71e-6
6.267e-6
6.972e-6
6.565e-6
6.242e-6
6.965e-6
6.618e-6
6.188e-6
6.981e-6
6.393e-6
5.747e-6
6.282e-6
5.388e-6
6.618e-6
5.455e-6
6.962e-6
6.965e-6
5.827e-6
6.948e-6
6.642e-6
5.979e-6
6.971e-6
6.979e-6
5.371e-6
5.637e-6
5.508e-6
6.366e-6
6.372e-6
5.746e-6
5.45e-6
5.962e-6
5.665e-6
6.03e-6
6.099e-6
6.402e-6
6.972e-6
5.394e-6
5.897e-6
6.949e-6
6.903e-6
6.436e-6
6.421e-6
6.325e-6
6.317e-6
6.513e-6
6.399e-6
5.922e-6
6.074e-6
6.967e-6
5.971e-6
6.968e-6
6.597e-6
5.654e-6
6.946e-6
5.768e-6
6.53e-6
5.83e-6
6.124e-6
6.065e-6
6.463e-6
6.951e-6
6.258e-6
5.755e-6
6.956e-6
5.788e-6
6.175e-6
6.971e-6
6.019e-6
5.9e-6
5.375e-6
5.785e-6
6.959e-6
6.97e-6
5.918e-6
6.95e-6
6.981e-6
5.588e-6
5.712e-6
6.446e-6
5.63e-6
6.963e-6
6.954e-6
6.977e-6
6.04e-6
6.109e-6
5.576e-6
6.956e-6
6.959e-6
6.018e-6
6.567e-6
6.448e-6
6.474e-6
6.549e-6
6.326e-6
6.395e-6
6.4e-6
6.978e-6
6.424e-6
6.007e-6
6.31e-6
6.619e-6
5.426e-6
5.935e-6
6.163e-6
6.419e-6
6.348e-6
6.963e-6
6.97e-6
6.394e-6
5.364e-6
6.449e-6
5.852e-6
5.445e-6
5.394e-6
6.953e-6
6.825e-6
6.3e-6
6.401e-6
6.043e-6
6.896e-6
6.708e-6
6.979e-6
6.182e-6
5.849e-6
6.42e-6
5.565e-6
6.371e-6
6.295e-6
6.276e-6
5.982e-6
5.966e-6
6.317e-6
5.516e-6
6.251e-6
5.496e-6
6.929e-6
6.686e-6
6.529e-6
5.723e-6
6.435e-6
6.063e-6
6.487e-6
6.97e-6
6.966e-6
6.556e-6
6.371e-6
5.859e-6
6.958e-6
5.887e-6
6.964e-6
6.428e-6
6.963e-6
6.977e-6
6.951e-6
5.97e-6
6.01e-6
6.945e-6
6.1e-6
6.954e-6
6.425e-6
6.129e-6
6.014e-6
5.307e-6
6.956e-6
6.037e-6
5.483e-6
6.395e-6
6.969e-6
6.959e-6
6.973e-6
6.968e-6
6.966e-6
6.969e-6
6.027e-6
6.017e-6
6.449e-6
5.799e-6
5.545e-6
6.961e-6
6.97e-6
6.488e-6
6.951e-6
6.137e-6
6.254e-6
6.727e-6
6.566e-6
6.963e-6
6.217e-6
6.453e-6
6.035e-6
6.131e-6
6.083e-6
6.967e-6
6.964e-6
5.495e-6
5.283e-6
6.731e-6
6.365e-6
6.557e-6
6.98e-6
6.111e-6
5.769e-6
6.968e-6
6.967e-6
6.971e-6
6.978e-6
6.789e-6
6.421e-6
6.925e-6
6.224e-6
5.901e-6
6.952e-6
6.194e-6
6.513e-6
6.63e-6
6.011e-6
6.144e-6
6.139e-6
6.073e-6
6.968e-6
5.857e-6
5.485e-6
6.616e-6
5.984e-6
6.234e-6
6.473e-6
5.787e-6
6.03e-6
6.977e-6
6.97e-6
5.388e-6
6.457e-6
6.949e-6
6.669e-6
6.976e-6
6.278e-6
6.969e-6
6.969e-6
6.971e-6
6.074e-6
5.457e-6
6.241e-6
6.97e-6
6.199e-6
5.88e-6
6.588e-6
5.57e-6
6.302e-6
6.013e-6
5.663e-6
6.393e-6
6.979e-6
6.964e-6
6.96e-6
6.95e-6
5.7e-6
6.318e-6
6.972e-6
6.181e-6
6.963e-6
5.552e-6
6.981e-6
6.105e-6
6.567e-6
6.973e-6
5.899e-6
6.965e-6
6.394e-6
6.152e-6
6.741e-6
6.452e-6
6.012e-6