# vtk DataFile Version 3.0
3D scalar data
ASCII
DATASET POLYDATA
POINTS 32972 float
22.75 4.49 74.89
-46.94 -21.28 30.71
44.79 -9.334 -35.7
-71.85 21.9 55.62
55.13 83.87 51.12
30.89 -37.32 -96.19
-14.36 41.46 -20.57
69.02 18.53 -2.788
-42.29 31.02 38.13
36.37 -52.28 34.09
-13.54 -25.8 32.83
-12.89 -100.9 28.7
48.2 -36.07 20.08
-41.35 -3.771 34.3
-68.33 48.19 -16.01
-34.3 8.645 37.65
-4.025 -42.58 -7.575
83.3 4.898 12.18
26.08 25.31 62.01
16.94 91.22 -4.343
-44.9 -70.68 53.15
17.35 46.72 -0.8083
-8.404 8.869 -1.436
-37.16 -11.39 24.58
-94.81 1.735 -26.32
-18.76 -89.29 -0.6822
-18.47 -33.34 -11.81
10.01 88.17 -61.61
-161.9 2.895 12.17
-32.07 -1.648 49.1
-42.18 7.647 17.09
58.14 -25.8 47.95
-2.656 -103.1 105.
-12.27 14.21 -72.3
64.63 -129.9 -0.02297
1.83 52.46 21.14
0.4946 28.2 -52.25
70.09 24.97 -40.73
40.42 -68.92 78.23
-86.27 -72.94 114.6
-10.75 -34.13 34.05
28.13 2.227 -3.799
-16.71 -83.05 41.04
-36.17 -19.07 18.14
-59.25 -1.131 -4.485
69.29 69.41 -4.044
-73.15 146.7 51.6
-43.56 33.7 11.98
9.35 -67.46 -22.62
-19.32 45.09 38.64
10.51 -50.37 -37.34
-47.64 -107. 52.4
-105.2 3.574 -47.68
-50.75 -13.22 -140.3
-82.21 -26.57 -16.35
-19.96 30.51 7.979
-9.59 42.33 9.051
118.9 5.089 14.99
18.75 -34.94 -15.12
1.885 -6.955 56.97
36.38 -0.2607 17.76
-72.97 -39.36 168.4
6.611 47.5 11.94
-14.92 10.72 55.94
24.76 32.5 121.3
-14.6 2.208 52.72
50.84 -81.03 28.02
1.666 -24.6 -35.84
16.46 53.4 93.23
16.43 -28.25 27.95
52.21 -32.07 12.78
6.347 -90.15 46.45
10.92 -37.62 47.16
42.64 -43.24 -17.84
-5.708 13.75 88.48
150.9 -28.19 80.3
-10.58 25.81 133.
-26.35 -138.5 40.04
-12.6 122.5 2.138
-0.6669 -8.686 28.35
-1.05 0.6937 -11.03
-36.16 -31.09 -92.43
-42.34 9.248 2.115
50.96 -57.12 94.34
-74.65 -23.33 12.94
-41.01 38.95 52.63
-55.33 62.11 -43.23
-36.68 4.768 -19.56
-105.7 -46.61 27.52
-34.53 -16.1 -4.416
-20.01 57.69 -14.78
-26.37 -53.58 -25.3
-65.08 110.8 71.53
-2.444 135. 16.67
-20.81 -12.2 -48.22
-21.33 -43.99 -24.35
35.39 -74.18 1.051
-16.64 17.37 -57.62
-3.87 -97.46 -98.57
-28.79 -48.27 -16.72
-1.265 31.77 19.73
-97.39 -126.6 82.96
1.262 7.176 8.491
-133.5 -71.4 2.561
-37.23 -26.75 61.48
117.5 45.8 16.9
65.7 41.07 98.38
67.97 11.01 -29.96
14.42 4.609 -62.11
6.183 82.81 58.92
19.59 -14.8 54.11
25.11 43.04 -93.22
-56.15 -54.93 60.16
62.69 -58.28 33.35
20.14 -21.8 61.51
39.92 -0.6752 41.53
34.99 -22.74 110.6
18.02 44.4 9.817
6.144 -98.05 45.07
-28.67 13.16 63.24
8.221 28.96 59.6
119.6 89.2 46.17
-8.442 -59.78 75.07
24.26 3.318 38.7
-84.13 31.96 46.93
24.32 -23.44 105.7
-51.7 -39.51 106.8
53.16 45.46 -7.83
-3.801 4.618 -55.23
-7.747 -65.71 10.83
20.87 3.241 16.65
11.4 55.66 -30.22
-37.2 43. -40.43
28.44 -27.79 11.64
65.01 40.7 -29.91
-19.49 3.08 41.48
2.171 -17.18 -95.17
-14.01 -16.28 30.98
5.809 54.42 59.61
24.13 -6.957 2.432
58.59 -65.06 -8.528
34.43 29.96 64.49
67.02 -49.01 -25.06
-24.12 -17.71 12.52
-67.22 -25.03 27.37
-19.85 -5.145 -1.506
112.4 -25.12 -11.35
-43.1 -121.4 -0.379
22.47 15.39 -22.13
-21.48 39.11 23.39
-9.05 -20.16 -4.599
-82.35 21.56 62.38
-12.7 -51.81 20.28
-40.98 39.84 3.431
-118.7 -35.73 12.05
-18.08 -47.92 37.02
-48.15 95.88 -66.05
-58.1 -25.68 81.64
-113.4 100.8 46.6
1.392 12.69 58.98
39.94 40.27 47.06
71.71 26.93 4.442
-44.23 -22.99 -23.98
-21.85 68.12 66.18
-5.84 -32.71 165.1
-10.11 -3.66 -5.274
2.152 -112.1 82.93
-56.3 1.293 38.34
-11.01 -5.914 18.96
-25.81 12.93 -27.9
-92.59 -64.02 60.23
-18.17 43.76 -6.035
-39.46 -17.24 -34.8
9.834 -51.51 -66.57
15.93 -21.22 -7.862
-61.2 -20.04 -87.62
-65.94 130. -11.46
-24.95 70.79 20.57
-27.6 118.7 105.8
-60.61 -23.84 -4.272
-1.412 26.63 -82.4
-46.37 49.34 30.36
-61.36 90.2 29.98
-15.24 11.52 16.89
8.228 -41.29 -66.5
-46.83 -96.54 -39.53
-43.67 -28.31 -28.47
-35. -87.43 67.14
-8.583 -48.87 -108.1
-57.66 -37.89 -11.7
-65.05 -70.23 31.74
-10.91 3.316 37.54
-85. -60.53 -70.01
2.143 28.16 -1.905
-6.541 28.83 25.77
-11.68 -43.13 -18.84
56.91 -23.56 25.09
-24.85 21.05 58.63
51.94 14.17 -12.08
29.85 35.02 20.99
55.85 -0.4658 51.22
-56.41 0.963 -63.26
-56.49 -32.61 -2.599
-5.326 -3.472 42.22
8.621 -70.37 -76.4
-23.7 -19.23 28.93
59.42 15.55 15.78
47.76 6.744 -37.18
-58.28 104.8 118.2
37.88 -8.245 66.97
-59.21 -51.61 94.67
-5.667 129.5 7.811
71.5 69.12 154.8
36.97 125.2 -61.81
-107. -41.59 76.78
43.89 -72.46 -84.34
7.442 3.343 22.84
1.748 15.45 -11.1
89.64 -7.115 64.6
43.6 40.94 -32.13
11.21 -25.83 34.4
106.4 11.92 52.23
2.643 -23.35 39.51
-34.32 31.35 -46.3
47.67 38.8 91.55
39.88 -15.97 -29.92
40.41 -25.36 47.33
5.215 56.75 13.13
32.57 -19.74 42.
-15.41 -26.06 103.6
24.5 27.48 102.6
5.914 101.9 -46.56
-59.95 -86.6 102.5
-36.44 -51.92 57.89
55.84 -31.36 -57.49
5.237 -65.79 81.14
61.75 -132.1 -50.23
-51.58 -5.259 53.17
-20.35 29.01 56.89
17.78 -30.37 36.08
26.79 -4.826 -17.79
-3.565 16.97 157.1
55.03 47.55 -19.88
17.43 -56.12 36.03
-0.1353 -74.37 42.27
-66.85 -19.22 7.679
-15.25 -12.79 12.4
9.407 -5.753 -30.55
40.03 10.16 -40.41
-74.87 35.7 46.64
18.29 97.37 -62.71
82.94 -53.78 34.11
57.69 5.064 -34.68
44.58 -54.57 13.62
-13.75 -39.55 144.5
136.2 -33.17 -61.81
162.6 29.35 28.95
-95.09 105.5 21.41
-0.6205 2.789 -3.556
-8.88 -17.48 28.33
71.1 -68.77 -26.96
-25.82 73.13 122.8
-41.4 -13.02 121.6
-21.94 6.225 0.6238
4.332 64.48 28.68
-60.21 -19.66 -11.37
-122.6 -63.35 10.04
31.38 52.05 53.34
-9.142 34. 77.97
-63.68 88.15 128.9
-61.97 -53.16 -92.38
-34.78 -35.1 -33.91
-36.87 -5.633 -25.46
7.158 -51.22 20.02
45.19 -34.15 -28.4
22.21 -14.84 -0.1882
-56.8 9.502 -5.791
18.41 -52.77 4.04
91.15 47.99 -94.15
-56.52 155.1 26.05
-35.08 -13.17 78.18
-20.64 -31.31 28.27
48.22 -63.12 -21.24
-55.01 -27.87 25.71
-54.96 87.83 -80.2
-80.71 -138.1 22.87
29.65 -3.1 102.7
-23.31 -38.42 -2.421
13.38 61.34 64.62
-78.83 14.29 7.813
43.04 -75.76 -42.47
-124.8 50.6 -7.36
97.81 56.49 -14.1
3.577 -45.37 12.26
-15.86 2.726 -23.38
-48.51 37.69 75.27
-90.91 -15.98 45.4
-83.21 -49.59 -42.25
27.83 -55.2 104.9
-63.23 37.12 -20.63
45.48 27.6 23.56
121.1 42.54 110.7
34.95 -10.22 1.848
-93.97 34.27 -63.23
23.32 -49.98 17.56
23.37 -49.55 -78.88
78.78 -0.2304 -43.25
-63.99 15.22 52.14
-11. -8.825 69.37
-73.04 -3.291 11.75
16.57 -1.548 44.35
-22.33 -25.01 18.47
32.16 -7.24 -8.484
0.6842 3.002 56.75
8.285 -36.62 10.22
-49.8 -97.99 33.
30.74 -53.06 -67.64
-22.84 48.54 17.06
-80.53 44.04 -13.66
65.32 1.853 30.15
-26.91 -8.404 14.22
4.927 -74.83 9.246
-64.99 -3.887 29.21
-29.44 -83.08 48.39
21.4 -10.12 -58.72
-9.818 -63.8 -104.8
-4.821 96.8 -45.23
-1.229 -73.01 83.62
61.33 -64.47 27.61
-78.95 -99.78 -3.522
20.14 -141.9 -32.17
-53.72 30.96 11.92
-25.41 -11.6 35.3
-76.69 53.85 -12.71
14.77 5.909 9.358
-44.31 62.28 -104.5
42.85 1.624 -125.2
-8.283 23.03 -54.9
-86.65 55.69 77.33
-64.56 50.3 -119.4
29.05 76.08 55.2
-12.58 -27.84 -26.24
-23.52 35.83 68.22
-20.42 41.1 7.515
-1.72 11.61 -8.406
19.82 71.14 -16.81
-21.29 102.1 16.
-30.34 3.967 -4.161
-20.4 84.34 -26.88
-62.97 69.48 25.97
-13.02 -3.333 28.67
-33.81 14.38 -17.54
-6.93 -148. -61.95
-69.8 -43.41 -18.72
-35.67 -87.87 -18.21
-22.63 -73.8 70.76
-3.342 -29.55 -43.77
-68.88 -39.98 -104.8
-16.24 6.561 -68.36
-46.57 -55. 29.95
32.38 32.87 47.77
-8.599 37.49 23.82
-20.77 -58.34 -68.77
-65.05 -87.33 -14.63
-20.67 40.61 43.41
-44.03 -15.82 -89.03
13.42 -2.371 16.06
35.21 15.79 -16.98
5.771 -63.73 -59.72
-64.18 -91.86 -84.43
-92.76 -115.7 -59.71
27.15 148.7 15.56
-12.62 36.8 0.7105
38.97 39.15 68.82
26.74 77.4 -2.215
84.68 -4.254 -4.546
-29.37 12.99 27.06
77.93 -6.871 35.38
118.9 -8.557 -1.646
33.34 -8.135 28.96
-34.94 -36.67 -21.86
82.14 -35.26 -61.66
37.85 41.16 47.25
-80.14 -12.41 -63.11
31.94 41.21 -73.56
71.99 -21.5 19.23
-35.57 28.03 105.3
-18.29 -17.44 51.63
-24.61 6.417 33.6
-72.33 -15.13 -21.22
9.216 27.42 20.48
-33.75 -46.85 1.988
51.91 30.36 33.64
28.65 -7.581 52.44
2.037 9.056 -28.
-127.8 -3.352 -17.65
27.44 16.4 57.68
43.94 -12.15 64.29
31.76 -61.01 -40.43
-33.11 -38.77 49.76
-14.05 1.823 46.44
42.76 -44.22 32.55
-26.19 38.46 -33.35
-105.8 -45.77 67.48
58.4 18.67 -18.97
58.43 40.41 70.36
-17.62 55.47 90.78
-4.688 44.18 2.244
-41.08 -17.26 59.32
129.5 -26.04 64.34
23.58 -5.368 12.56
27.36 88.9 48.92
3.895 -42.59 4.868
52.91 146.8 67.85
36.3 -122.9 -33.24
46.81 24.69 -21.37
64.58 78.47 -4.87
56.63 25.36 41.6
-17.77 -15.88 41.4
56.57 33.81 95.2
15.23 -34.97 -109.2
-9.986 -14.14 62.6
-37.87 32.1 8.248
36.83 17.71 66.51
26.54 -51.59 142.5
21.88 0.8709 -12.44
28.4 -30.83 -49.12
24.5 10.39 12.67
83.34 -64.8 75.36
40.18 2.953 -6.733
75.77 19.48 155.2
31.68 -7.187 23.75
-58.2 -40.09 32.13
-38.44 26.39 71.56
49.7 15.34 57.82
10.27 8.991 65.16
-44.94 31.47 29.2
40.8 -105.2 17.53
-8.774 -22.18 21.9
11.81 -34.53 49.43
-65.94 15.6 135.8
9.898 -16.99 63.35
71.5 63.76 -3.627
31.07 -32.41 25.57
36.09 -122.3 -2.099
15.62 -46.42 32.53
-21.7 -26.82 111.4
58.6 -38.35 21.01
10.98 -36.24 77.03
65.6 57.07 14.72
72.01 -96.49 -16.
-48.14 51.01 5.031
-47.42 -56.92 62.43
14.33 31.46 113.8
12.64 -6.004 -51.18
97.02 -90.76 6.342
11.61 47.74 -47.77
-150. -38.42 13.07
9.704 28.78 -46.87
27.56 -59.04 37.94
28.9 25.97 27.4
62.01 -58.26 38.05
57.83 -24.85 59.35
51.64 -32.27 64.2
80.38 83.09 20.06
-53.89 51.25 101.7
8.987 -5.755 112.6
16.76 62.36 105.4
31.74 47.02 1.029
139.3 -23.32 -22.29
-40.38 0.4901 -39.96
20.26 -73.45 7.846
42.13 -38.36 58.62
40.29 -89.21 -6.418
60.23 51.64 -102.9
52.05 66.21 -33.89
-18.02 84.91 -59.35
8.908 39.32 -22.22
86.74 -53.84 87.09
40.05 74.45 163.7
95.75 6.185 88.55
-44.41 48.56 0.1117
1.355 120.4 59.49
-10.53 -23.77 -12.98
97.57 -4.656 28.86
6.382 -27.97 25.73
-8.748 71.11 -49.41
48.98 11.14 29.2
-106.7 36.8 121.9
-30.95 -78.22 30.27
34.47 -48.64 -102.2
-117.1 73.87 -19.09
8.428 58.87 56.38
72.73 -40.24 8.678
-26.2 -19.68 12.63
18.15 46.58 170.5
10.05 -3.963 -13.91
68.05 -67.5 27.09
86.58 -48.52 -41.19
-54.1 -24.61 2.601
-25.83 -26.18 156.4
-43.51 35.88 88.27
-112.2 -66.53 -10.89
-15.75 53.16 148.3
18.77 31.19 -30.13
57.97 78.07 125.6
-38.88 26.2 6.093
-15.09 26.65 80.73
-62.38 99.34 -39.96
12.34 -64.74 22.63
-59.07 51.3 -51.53
74.32 -65.67 2.307
14.18 -15.23 -7.658
-3.043 -139.8 33.61
-47.79 27.48 31.33
26.31 -18.33 -24.54
-36.66 49.76 -1.347
-27.89 -27.45 4.882
[...]
POINT_DATA 32972
SCALARS radius float
LOOKUP_TABLE default
5.835
4.632
5.826
6.019
6.11
6.521
5.429
5.763
4.572
6.023
4.418
5.221
5.951
4.484
6.241
4.693
6.062
6.551
4.59
6.246
6.23
3.621
5.579
5.88
6.568
3.828
4.672
6.679
7.208
5.745
4.781
6.087
7.15
5.233
7.626
6.131
6.222
5.863
6.449
7.517
5.49
5.009
6.277
5.329
5.274
6.696
7.616
5.58
5.352
5.83
5.099
5.193
6.679
7.179
6.39
6.01
6.148
5.846
5.479
5.832
5.673
7.83
5.586
5.181
6.458
6.005
6.664
6.049
6.107
5.042
6.001
6.686
5.513
5.357
6.279
7.736
5.67
7.419
5.519
5.63
5.991
6.604
5.82
6.649
5.53
6.086
5.619
5.303
6.028
5.707
6.138
5.907
7.416
5.205
6.375
6.276
5.143
6.168
7.168
5.745
5.803
7.538
5.588
7.229
5.662
6.849
6.025
6.574
5.59
6.502
5.19
6.949
6.477
6.48
6.153
5.58
6.434
6.051
5.555
5.927
5.192
7.607
6.459
5.807
5.96
6.621
5.772
5.26
5.61
6.079
5.456
6.129
5.305
3.165
5.357
4.45
6.692
5.531
6.311
5.717
5.264
6.346
6.656
5.803
6.185
5.555
5.34
6.416
5.073
4.793
5.738
6.257
5.727
6.173
6.744
5.986
7.
4.6
7.537
5.602
5.766
5.571
5.423
6.781
6.997
5.427
6.983
5.895
5.596
5.86
6.664
5.849
5.842
6.204
5.925
6.875
5.59
6.147
7.368
5.033
6.686
6.297
6.115
5.684
5.052
5.574
5.611
5.763
6.763
5.513
5.931
4.952
6.303
5.509
3.773
6.183
5.921
4.923
5.608
5.921
6.138
4.193
5.88
5.614
5.804
5.75
5.797
3.971
7.411
6.022
5.9
6.436
7.644
7.369
6.917
6.737
5.685
5.53
6.274
4.817
5.503
6.599
5.982
6.124
6.203
5.623
5.396
3.27
6.068
5.254
5.399
6.85
6.8
6.188
6.24
5.034
7.297
3.541
3.85
3.694
5.918
6.976
6.326
5.817
5.209
5.44
5.632
5.578
6.234
4.103
6.526
5.369
5.743
6.381
7.107
7.438
7.542
7.194
5.68
5.851
6.715
6.862
5.846
5.51
5.903
3.292
6.945
4.164
6.098
7.611
6.582
4.084
3.316
6.052
5.709
5.976
6.253
5.216
7.347
7.595
6.087
5.728
5.889
6.218
7.292
7.535
3.462
5.91
4.629
6.367
6.419
7.049
5.543
5.44
5.766
5.665
6.106
6.129
5.769
6.368
6.333
7.03
5.985
5.842
5.775
5.741
6.765
5.885
5.788
5.991
5.264
4.903
6.125
5.419
5.97
6.618
6.39
5.555
6.413
6.104
5.103
5.288
4.33
6.623
6.477
6.252
6.203
6.25
6.048
6.923
6.872
5.839
5.651
5.446
5.472
7.011
7.365
5.51
6.046
7.741
5.896
5.984
5.907
5.834
5.742
5.079
6.011
5.833
6.144
5.417
5.31
5.569
7.557
4.621
6.525
5.928
5.789
6.663
5.375
4.458
5.65
5.613
5.422
6.826
5.303
6.283
5.774
6.069
6.51
6.887
6.907
7.493
5.659
5.8
5.732
5.376
5.553
6.328
6.27
5.676
5.971
6.701
5.573
6.695
6.305
6.597
6.562
5.713
5.658
6.052
5.606
5.499
5.782
5.964
6.149
6.966
5.96
5.775
5.357
6.176
5.718
3.359
6.054
6.196
6.155
6.496
5.262
5.839
6.
7.184
5.691
6.718
3.315
7.607
7.17
6.236
5.359
6.024
5.992
5.976
6.522
6.155
5.937
6.468
5.789
5.186
6.434
5.942
7.012
5.898
7.619
6.107
6.127
6.013
5.796
6.185
5.825
6.54
3.024
5.606
6.746
5.785
5.959
5.122
6.417
5.89
6.621
5.913
5.753
6.392
6.781
6.534
5.683
6.241
5.518
6.744
6.046
5.915
6.124
6.14
5.786
6.462
5.957
6.148
6.603
6.943
5.175
6.63
6.098
7.263
5.814
6.126
4.141
6.484
7.238
6.749
6.634
5.213
7.019
7.696
5.528
4.557
7.005
4.743
5.785
5.915
4.201
5.79
7.508
6.287
5.812
7.116
6.023
6.008
5.691
6.718
4.219
5.407
6.483
4.299
7.391
5.935
5.607
7.39
5.779
7.168
5.836
6.095
7.001
6.298
6.519
6.689
5.87
7.069
6.122
5.713
5.983
5.092
6.426
5.541
5.882
7.573
3.906
4.69
6.331
6.944
5.149
5.755
6.947
6.016
6.632
4.067
6.465
6.419
7.62
5.036
7.684
5.598
5.398
5.698
7.574
3.842
6.238
6.61
7.773
4.247
5.504
6.583
3.241
5.937
6.109
6.083
6.873
5.784
4.41
5.868
6.079
5.501
6.455
5.635
6.266
7.516
5.51
7.404
5.262
5.786
5.771
6.297
5.92
6.665
3.537
5.869
6.295
6.34
5.948
5.833
5.042
6.792
7.577
5.757
5.739
5.429
6.57
4.813
6.306
6.521
6.345
6.238
5.326
5.96
6.226
5.586
5.804
6.442
7.46
7.765
6.007
6.332
6.038
4.367
6.057
5.93
5.967
5.98
5.965
5.945
7.49
5.524
5.623
6.815
6.01
5.888
7.367
6.144
6.28
5.643
5.959
6.534
5.981
5.791
5.793
5.897
7.826
5.896
6.456
7.513
3.888
5.938
6.486
6.611
5.752
5.884
6.281
6.051
6.771
5.678
6.568
7.5
5.761
6.018
5.482
3.114
5.992
6.789
3.857
6.249
5.525
7.576
5.957
3.854
5.6
7.628
4.39
5.791
5.465
5.605
6.423
5.843
7.735
6.605
6.515
6.16
5.657
4.306
7.056
6.016
5.675
5.36
5.633
6.896
6.061
4.886
6.017
5.53
5.656
5.865
7.054
5.861
5.669
5.604
6.759
6.489
5.478
5.713
6.455
5.76
7.124
5.879
5.667
3.673
7.258
7.616
5.922
5.667
5.869
5.79
5.727
4.335
6.335
6.587
5.628
7.214
6.144
6.447
6.395
6.333
6.284
6.364
7.088
5.862
6.65
6.999
5.855
6.341
7.712
6.194
6.183
7.789
7.408
5.748
7.382
6.316
6.935
5.123
6.142
6.719
5.914
7.739
5.934
7.167
6.986
5.678
5.671
5.05
5.762
3.928
6.428
5.669
4.742
7.308
6.164
5.859
5.902
5.887
6.172
6.577
6.033
6.741
5.904
5.937
6.057
5.893
6.616
5.697
5.805
6.963
5.497
5.687
5.747
5.779
6.629
3.63
6.16
6.11
3.599
5.808
3.073
5.685
5.924
5.556
5.163
4.818
3.46
7.595
6.337
5.472
5.931
6.713
6.29
6.525
5.838
4.738
6.104
7.767
5.951
6.131
6.111
5.712
5.764
5.441
5.828
3.214
5.542
7.586
5.632
4.558
5.647
6.431
4.914
5.022
7.742
7.402
5.836
5.933
6.003
5.861
5.715
3.767
5.517
4.226
6.604
5.93
6.874
5.264
5.953
6.333
6.21
5.871
6.359
3.474
6.003
6.62
6.985
5.941
3.414
5.185
6.703
4.115
5.637
6.203
6.466
4.356
6.026
7.048
5.082
7.616
5.788
3.903
5.879
6.72
7.685
5.954
6.824
4.016
5.814
6.283
6.062
7.789
6.179
3.499
6.149
5.692
6.055
6.134
7.411
6.12
5.798
5.659
5.846
4.315
6.717
5.519
4.948
7.058
6.835
6.44
5.653
4.079
6.128
6.375
4.894
6.186
6.565
6.377
6.197
6.078
4.039
5.99
6.895
3.547
3.614
6.397
5.943
6.607
5.782
6.996
6.11
5.843
7.44
6.41
6.087
3.826
4.742
6.667
6.411
6.164
6.145
6.25
7.432
5.844
3.618
4.003
5.836
5.996
5.667
7.561
6.554
5.595
5.782
7.608
7.585
7.552
5.987
6.925
5.903
6.141
7.35
5.861
7.539
5.481
5.783
5.62
7.516
5.007
4.65
4.122
5.984
6.182
6.566
6.918
5.661
5.899
3.423
5.845
6.228
6.564
6.856
7.647
6.55
5.888
6.781
4.185
5.572
5.926
4.797
6.716
5.596
6.752
5.992
6.043
6.188
6.464
5.251
4.075
6.064
6.431
5.917
5.836
5.938
6.169
5.636
5.703
6.971
3.545
5.912
5.641
6.194
5.775
6.626
6.502
6.85
6.672
6.674
5.953
6.413
6.397
6.05
7.443
5.936
5.747
6.141
7.6
3.821
6.292
5.878
5.772
5.616
7.006
6.251
5.691
5.774
6.516
6.571
6.161
6.075
6.455
7.234
5.478
4.834
5.995
6.013
6.225
5.432
6.13
6.104
6.314
5.811
6.14
6.153
6.189
7.202
6.11
4.938
5.903
4.301
5.718
6.164
6.91
6.062
6.28
7.274
5.986
5.864
6.234
3.368
5.999
6.337
5.857
6.182
7.263
6.242
5.848
5.943
7.166
5.952
7.135
5.472
6.07
6.379
5.616
6.66
4.957
6.812
5.71
5.728
6.027
6.469
7.107
6.77
6.48
6.523
5.92
6.544
4.551
5.057
6.585
5.764
6.807
7.022
5.592
5.617
5.908
6.807
6.074
6.1
5.758
6.81
5.653
6.597
6.179
5.577
5.852
7.116
5.62
5.175
6.407
5.79
5.78
3.515
6.66
5.752
6.318
6.147
5.771
5.996
4.793
6.272
4.51
6.44
6.649
4.15
6.651
4.046
7.138
5.663
5.948
6.217
6.685
7.636
7.347
5.88
5.887
6.055
7.274
6.561
4.516
5.714
5.916
5.446
5.926
6.338
3.861
3.624
5.802
6.615
5.819
5.916
5.89
6.392
5.578
6.245
5.752
6.265
6.28
5.775
6.486
5.907
6.454
6.103
4.828
6.116
5.845
6.306
6.26
6.767
7.195
6.235
5.823
6.135
5.535
6.919
5.968
5.861
6.394
7.765
6.889
7.237
6.242
6.003
4.916
7.247
6.007
3.73
5.401
6.873
7.424
6.851
6.539
6.363
6.904
6.361
7.475
6.383
6.029
6.035
5.545
6.35
6.389
5.732
3.192
5.931
5.515
5.869
5.227
5.772
5.57
6.614
6.127
5.767
5.913
6.963
7.761
4.386
5.925
5.965
6.119
7.024
7.589
7.286
6.856
6.471
5.695
6.019
5.925
4.129
6.317
6.228
6.156
6.13
7.522
6.473
4.472
6.016
5.819
6.401
6.269
5.573
6.611
5.975
7.254
6.51
7.209
5.858
6.845
7.438
6.036
2.967
6.68
5.88
6.342
7.873
6.548
5.677
5.528
6.793
6.255
6.502
6.049
5.98
5.741
5.961
5.946
5.845
7.156
3.329
5.981
5.995
7.578
6.084
6.409
5.788
6.181
6.277
6.255
7.442
6.152
6.215
5.689
7.832
5.954
7.774
6.184
7.442
5.944
6.75
5.359
6.058
7.532
4.423
4.174
3.982
6.008
6.037
6.196
5.954
7.849
6.053
6.107
4.557
6.187
5.82
5.636
6.119
5.907
6.037
6.12
5.54
6.955
5.876
6.139
6.888
5.915
6.065
5.774
4.97
5.858
4.468
5.904
6.258
6.312
6.428
6.051
5.932
4.882
5.667
4.624
4.536
6.12
7.321
6.727
7.817
5.848
6.58
6.011
7.534
4.515
6.026
7.116
5.969
6.621
5.862
6.477
6.521
3.124
5.084
5.805
6.129
6.25
7.779
5.344
5.862
6.337
6.653
6.006
5.68
3.129
5.981
5.819
6.108
6.312
5.691
6.78
6.455
7.575
5.872
5.727
5.895
6.587
6.177
6.233
7.768
7.444
4.575
6.441
7.655
6.353
6.048
6.119
6.506
3.282
6.18
7.443
6.23
7.51
5.863
6.008
4.051
3.734
5.999
6.573
6.284
6.642
6.217
4.159
6.093
6.026
4.169
6.982
6.054
6.293
5.705
6.282
5.772
7.829
6.441
5.317
6.285
6.284
6.125
6.092
5.949
5.423
6.055
6.097
5.938
6.045
7.717
6.777
5.186
6.461
5.674
7.68
6.044
4.282
6.352
6.003
4.624
5.635
5.869
6.259
6.027
4.689
7.588
5.83
6.206
6.27
5.804
6.543
5.709
6.207
5.88
6.46
4.708
5.844
5.948
5.947
6.674
6.541
3.609
7.608
6.052
6.33
6.707
5.745
6.466
6.195
7.005
5.497
3.293
3.895
5.968
5.942
5.363
7.709
6.923
5.804
6.693
3.836
5.823
4.952
5.185
4.598
6.211
5.57
5.671
7.088
5.313
6.418
5.856
4.602
4.435
6.178
6.227
5.731
7.422
6.665
5.481
6.195
7.702
5.592
6.648
6.085
5.177
6.504
6.006
3.919
6.28
6.197
6.199
7.522
6.269
6.985
3.401
6.134
3.799
6.919
6.212
5.922
6.156
6.265
5.827
6.399
4.679
3.908
5.863
5.752
5.888
7.498
5.082
6.647
5.759
6.192
7.24
6.224
6.471
5.763
7.666
6.268
6.282
6.383
5.694
6.723
7.738
5.696
5.799
7.766
3.916
5.879
7.837
4.062
7.11
4.816
7.109
6.743
6.273
7.362
5.64
7.443
6.204
5.669
6.414
4.927
5.909
3.987
5.933
6.127
6.854
7.432
5.842
5.864
5.749
5.569
6.147
5.955
6.06
6.439
5.809
7.386
6.393
6.16
4.308
5.82
6.535
6.364
6.145
5.1
5.981
6.046
3.956
4.757
5.945
4.728
5.7
3.288
5.921
5.536
5.729
6.303
6.477
6.49
6.856
4.096
6.493
6.515
6.018
6.136
3.31
6.72
5.901
6.203
5.808
6.88
6.267
6.216
5.782
7.821
7.151
7.275
6.059
7.568
6.646
6.062
6.13
6.258
5.288
6.308
5.76
6.691
5.979
4.048
6.118
6.18
5.978
6.462
6.189
6.153
4.809
5.881
5.671
5.754
6.258
6.17
6.371
6.948
5.64
6.618
7.845
6.056
5.96
6.033
5.887
6.086
6.013
5.921
7.232
7.611
6.245
3.517
6.426
5.649
5.99
3.908
5.834
6.764
6.458
6.422
5.923
6.172
6.879
7.642
6.934
4.149
6.145
5.746
6.325
6.115
7.285
6.362
6.454
5.965
6.06
6.093
6.43
6.248
5.906
6.143
6.095
6.274
6.352
3.719
6.363
5.851
5.237
5.933
6.918
7.02
4.192
5.755
6.695
7.068
5.923
6.667
7.051
5.451
6.294
6.895
5.525
5.421
3.222
6.616
5.725
6.393
7.488
6.081
5.937
5.282
6.181
6.295
6.145
7.146
5.278
5.877
7.487
5.244
6.291
6.965
6.532
5.578
7.215
7.613
6.452
6.683
6.083
6.368
4.777
5.755
5.729
3.394
7.823
4.977
5.833
7.434
4.112
7.306
7.42
6.422
5.021
5.792
7.569
6.517
6.425
7.666
6.
5.139
6.332
3.527
3.08
6.27
4.899
3.173
6.211
6.17
7.02
6.423
4.901
7.123
6.145
6.359
6.373
4.819
6.385
6.896
5.198
3.255
5.823
6.355
5.007
6.757
5.59
5.92
7.483
3.983
4.076
4.976
6.199
5.082
6.398
5.877
5.92
5.756
6.467
5.817
6.176
5.218
5.632
5.881
6.114
5.848
5.922
5.396
6.346
4.731
3.161
4.779
6.422
6.118
5.133
4.815
5.857
3.726
6.262
6.811
5.824
6.331
7.613
5.576
7.043
6.25
6.374
6.333
6.506
5.952
6.501
7.55
6.305
5.975
6.53
6.633
5.18
6.223
5.838
6.754
6.545
6.27
7.833
3.58
7.455
6.59
6.582
6.845
6.347
6.031
7.456
6.053
5.862
6.636
7.046
6.482
4.148
3.455
6.637
7.152
5.793
6.522
6.171
3.437
6.683
6.767
4.77
6.11
4.63
5.194
4.701
6.613
5.943
6.075
6.423
5.879
6.256
6.475
6.449
4.59
6.491
6.266
5.021
5.937
6.236
7.294
7.854
6.511
3.61
6.765
4.933
6.778
6.502
6.201
5.667
6.171
6.042
5.929
3.884
6.657
5.868
5.781
5.279
6.005
6.143
6.155
5.767
5.557
6.16
5.393
6.276
3.766
5.883
4.845
6.503
6.95
7.321
3.572
6.537
5.265
3.374
6.354
3.523
6.171
7.122
4.936
7.022
4.026
4.265
5.933
5.75
5.126
5.863
5.976
3.787
4.149
5.857
6.056
5.83
4.113
6.013
6.396
4.078
5.964
6.679
5.767
5.7
6.084
5.512
5.229
5.25
5.005
6.885
5.784
6.536
6.159
6.462
6.382
6.144
6.811
7.488
3.774
6.279
7.407
3.41
6.895
6.306
5.273
5.81
5.568
7.189
6.173
5.997
6.648
5.355
6.082
6.184
6.188
5.575
6.871
6.713
7.828
5.739
6.072
4.225
7.214
6.909
5.002
4.838
4.713
5.061
6.58
6.383
5.582
5.111
6.091
6.618
6.574
5.312
5.726
7.452
6.034
5.551
5.698
3.386
6.4
6.041
6.588
7.366
5.577
5.458
6.417
7.551
5.931
3.525
6.283
6.706
3.288
7.098
6.17
6.318
6.012
7.53
5.808
5.704
5.23
5.028
6.103
6.184
6.098
5.851
5.791
6.003
5.577
5.932
6.755
6.139
3.084
5.951
4.98
5.043
6.
4.797
5.513
6.738
6.601
6.427
5.662
3.251
5.362
5.825
3.802
6.319
6.051
7.609
7.517
6.111
6.565
6.574
6.048
7.411
6.165
7.057
3.834
6.091
6.727
5.97
7.19
4.648
6.896
4.171
5.65
5.512
6.442
6.932
5.959
5.941
4.138
5.458
6.389
6.172
6.157
6.023
6.592
7.095
6.236
6.137
3.817
6.395
7.815
6.492
5.915
5.879
6.311
5.128
3.677
6.131
4.547
3.56
6.13
5.987
6.204
7.816
6.142
4.455
6.273
4.37
6.097
5.913
4.508
5.232
5.833
6.457
6.92
5.692
6.28
5.983
6.29
6.955
5.802
5.862
6.349
6.304
7.049
5.972
7.494
3.134
6.208
4.28
6.292
6.324
5.868
7.374
5.642
5.846
3.269
5.915
6.929
6.735
6.602
6.251
6.16
6.191
6.047
5.712
6.863
5.892
6.884
6.219
6.048
6.412
7.57
6.351
7.22
5.924
5.588
6.485
6.311
5.576
5.882
6.968
6.596
5.89
6.434
6.408
5.358
6.263
6.555
5.379
5.955
6.388
7.067
6.127
6.388
6.537
5.649
5.447
5.57
6.837
6.522
3.39
7.493
5.709
6.161
6.193
7.224
4.517
7.546
3.294
6.728
5.641
6.099
6.874
7.568
6.256
6.683
7.01
4.015
5.318
6.52
6.417
5.922
6.095
7.871
5.519
5.957
6.1
7.308
5.835
5.501
7.114
7.58
6.567
6.39
5.887
7.526
6.335
6.852
7.536
5.94
3.535
6.745
6.163
6.965
5.713
6.805
5.968
5.36
5.327
7.593
5.789
7.66
5.988
6.38
4.564
5.968
3.738
7.453
7.289
6.143
6.494
7.324
3.687
6.228
6.321
6.332
5.378
6.073
6.037
6.366
4.11
5.55
6.06
6.391
7.56
3.141
7.157
4.69
5.705
6.578
6.08
7.591
7.698
6.937
5.293
6.842
5.631
6.283
5.651
3.893
6.877
5.192
6.51
5.859
6.07
5.
5.865
7.823
6.49
6.958
3.3
6.733
7.732
5.724
4.741
5.832
4.294
6.648
7.305
6.694
5.627
7.472
5.753
5.848
4.166
6.771
6.058
5.587
5.744
6.132
5.8
6.52
5.87
4.409
6.635
7.438
4.498
6.345
4.681
5.685
6.169
5.67
6.189
3.083
6.399
4.859
6.02
6.191
4.848
5.677
6.277
6.827
6.243
5.95
5.295
6.886
5.96
3.886
6.047
6.987
6.275
3.183
6.489
4.981
5.151
4.537
6.39
4.665
7.457
6.457
6.759
6.253
6.095
7.76
6.694
5.472
5.269
5.555
7.109
6.989
6.487
6.025
6.318
6.001
4.712
6.013
6.298
5.109
5.799
5.87
6.08
5.946
6.095
6.307
4.368
6.4
5.989
5.973
5.728
6.675
5.588
6.252
7.557
5.626
3.687
5.972
6.69
7.338
6.82
6.105
5.243
5.416
5.284
5.925
5.751
4.572
5.963
5.692
6.983
7.117
4.718
6.211
3.383
6.053
6.15
6.54
6.103
7.799
5.827
7.827
6.571
7.779
7.685
6.332
6.091
6.648
6.467
5.347
4.763
6.243
7.038
6.936
6.472
6.402
6.091
7.806
6.224
5.22
6.377
6.319
5.31
6.13
3.896
7.606
7.034
6.393
6.027
4.739
6.658
5.96
4.879
5.359
5.355
3.955
7.719
6.436
7.152
4.294
5.692
6.63
4.978
7.204
3.526
5.84
6.139
7.101
6.023
5.666
5.331
7.711
5.895
6.229
6.778
7.582
7.865
6.216
5.908
6.162
7.261
6.516
6.46
4.645
6.695
6.028
5.519
4.49
3.375
7.802
5.444
6.98
5.791
7.807
5.545
5.676
4.999
6.18
7.63
3.89
5.384
4.231
6.663
6.583
3.584
4.742
6.412
6.114
7.45
4.308
7.053
5.653
6.254
6.17
6.253
5.918
4.666
6.539
6.461
6.122
3.233
6.384
6.423
5.547
3.341
6.676
7.136
6.061
6.252
6.206
5.809
5.691
6.529
3.823
7.665
5.591
6.022
4.75
3.819
6.46
6.242
6.133
4.355
5.023
4.959
6.415
7.104
6.335
7.238
6.508
6.183
6.396
6.432
6.031
6.466
6.134
4.438
4.236
6.288
3.593
5.596
6.133
7.396
3.187
5.99
4.064
5.643
6.512
6.086
5.924
6.413
6.374
5.314
7.804
4.198
5.487
5.328
4.965
6.113
7.316
6.574
4.676
6.063
4.274
6.95
6.624
6.396
7.413
5.568
6.639
6.063
5.25
5.845
7.213
3.902
6.597
6.417
7.422
6.952
6.089
6.076
6.152
6.257
3.977
5.432
6.418
5.23
6.081
6.027
5.614
7.677
5.544
5.929
6.082
3.401
4.516
5.936
6.247
5.027
4.633
6.802
6.074
6.009
6.295
7.777
7.706
6.138
4.999
7.166
6.646
5.941
6.455
6.244
7.301
6.315
6.447
6.055
6.83
6.85
6.038
6.112
6.042
6.282
6.83
5.958
5.524
6.589
7.77
6.642
6.746
6.311
6.265
7.521
6.446
6.632
4.079
4.586
7.617
5.697
6.487
6.64
6.755
6.167
6.861
7.663
6.273
6.602
5.723
6.358
7.518
5.569
7.065
7.82
5.95
3.779
6.058
7.213
4.359
3.885
6.066
6.268
6.381
6.24
7.287
5.984
6.227
7.09
6.058
6.221
6.806
4.533
7.836
3.154
5.912
5.574
7.266
5.034
6.342
6.512
6.531
6.706
5.988
5.425
6.642
5.637
6.073
6.732
6.43
5.995
5.837
6.022
5.91
5.853
5.895
3.701
5.72
6.459
7.323
6.159
5.38
7.759
6.225
6.177
4.134
5.471
5.789
5.67
6.693
6.
5.621
6.219
4.319
3.666
7.098
6.034
7.339
6.585
6.294
6.208
6.325
5.636
6.675
5.69
6.46
4.788
7.561
6.339
7.379
7.776
7.369
6.022
5.804
3.259
3.81
6.059
5.926
5.812
5.684
6.13
6.249
6.911
6.425
6.469
5.442
7.567
5.805
7.819
6.795
5.877
6.165
3.821
5.535
6.242
6.584
6.498
6.168
5.887
4.665
5.416
3.537
6.036
5.687
6.412
4.236
5.743
3.11
6.507
3.969
4.731
3.03
4.913
4.609
7.528
5.954
7.776
5.897
5.404
5.076
6.484
6.856
6.768
6.337
5.211
3.486
5.952
3.319
5.949
6.361
6.235
6.841
4.63
5.911
6.401
6.853
6.326
6.119
3.296
5.869
6.574
4.029
5.108
5.34
6.5
5.12
3.347
6.957
3.955
3.698
6.589
7.563
5.6
6.571
3.791
6.325
6.283
5.994
5.656
6.228
7.139
4.819
6.539
6.131
5.615
6.013
6.15
4.358
6.
6.412
3.442
7.003
6.152
6.233
6.649
6.532
7.75
6.507
6.725
6.24
6.287
6.725
6.575
4.079
6.45
5.392
4.599
6.703
6.42
5.924
3.848
7.199
5.934
7.382
6.038
5.686
5.863
5.454
6.927
6.36
6.317
5.052
6.665
7.209
5.033
6.453
7.606
6.287
4.972
6.734
4.6
5.735
5.682
6.774
6.215
5.15
5.895
6.504
6.576
5.618
6.105
3.944
4.477
6.103
5.719
5.688
5.927
6.036
3.927
5.797
5.959
5.75
5.738
4.915
4.473
4.929
5.512
7.849
6.259
5.832
5.145
5.908
6.901
6.744
6.148
6.428
6.626
6.237
6.116
6.157
4.495
6.551
6.852
6.124
5.126
5.891
5.794
6.821
5.135
5.099
5.862
6.098
3.703
6.39
6.086
5.424
7.62
6.893
7.539
6.322
6.445
4.189
6.826
5.713
5.467
7.082
7.619
6.281
4.864
6.171
6.838
6.978
4.584
6.643
6.327
5.153
6.498
6.452
5.701
5.043
3.949
7.603
4.961
6.407
7.694
6.487
6.155
6.604
7.547
3.683
6.35
6.269
6.532
7.609
6.136
6.254
5.62
7.514
5.512
7.575
6.817
5.69
7.275
5.137
5.359
5.909
6.431
5.608
7.14
3.387
6.41
5.853
4.137
6.179
7.644
5.151
6.394
7.117
6.403
3.267
5.317
6.901
5.992
4.67
6.523
3.995
3.28
6.327
6.788
7.598
4.431
4.057
6.79
6.252
4.186
6.708
5.92
6.5
4.16
6.093
4.712
5.706
3.451
6.737
6.943
6.074
4.918
6.519
6.176
6.581
6.016
5.764
6.527
5.911
5.387
6.259
5.559
6.171
6.684
6.152
5.431
5.519
6.189
7.548
7.024
6.544
6.297
3.529
7.281
6.988
6.999
7.067
3.586
5.766
6.824
6.371
6.918
7.205
4.726
6.407
6.037
3.523
6.602
5.281
3.279
4.494
5.885
7.02
6.11
5.625
5.885
5.593
6.142
6.257
5.717
5.346
5.886
6.019
6.696
6.923
5.725
7.03
6.023
5.877
7.383
6.886
6.571
3.526
6.001
6.771
6.255
4.787
6.505
7.488
6.443
6.088
6.841
5.511
5.972
7.475
5.96
4.309
7.403
3.756
4.513
6.299
5.906
5.8
6.141
7.454
7.584
6.952
6.228
5.609
6.394
7.123
5.609
6.284
6.522
7.117
7.361
6.196
6.558
7.547
6.091
4.589
3.393
6.716
6.184
6.028
6.543
6.475
4.559
4.354
4.792
3.731
4.742
7.598
2.874
5.323
6.259
6.296
6.412
3.877
5.846
6.028
6.181
6.686
6.311
6.421
4.027
7.162
6.004
6.465
3.2
6.143
7.468
6.417
6.171
6.827
6.464
6.522
5.911
5.878
6.379
6.119
6.06
6.209
6.232
6.129
6.413
5.872
4.407
6.851
5.831
6.363
3.891
5.631
4.898
6.433
5.62
4.359
6.855
4.513
6.516
6.282
6.347
6.952
6.295
6.64
6.891
6.318
6.035
6.527
7.759
5.3
7.646
6.263
7.723
6.213
4.778
3.065
5.809
5.839
6.51
7.08
5.413
4.193
6.562
5.729
5.124
3.75
6.068
5.626
5.971
5.743
5.908
6.66
6.737
6.205
6.76
6.378
6.21
6.113
7.427
6.249
6.304
6.692
3.829
5.891
5.811
6.957
5.049
5.782
5.798
5.7
5.02
5.87
5.141
6.164
5.927
6.934
4.502
6.039
5.559
6.02
6.439
5.734
6.034
5.672
6.738
7.599
6.508
4.651
4.586
6.798
4.23
5.822
4.462
6.454
5.275
4.285
6.506
5.381
5.619
6.705
6.172
3.246
6.286
6.366
3.597
6.387
6.492
6.585
6.246
6.443
5.522
5.611
7.024
5.124
3.945
5.396
6.273
6.344
7.584
6.757
5.549
6.487
5.25
4.223
7.583
4.521
6.17
7.11
7.118
3.346
4.145
6.471
5.332
6.065
6.686
6.301
5.666
7.036
6.913
4.899
4.585
6.039
4.087
6.323
3.72
3.747
6.686
4.396
6.642
7.419
5.961
5.35
6.307
6.495
5.381
6.058
4.15
3.421
7.271
6.427
6.393
7.528
5.698
6.083
3.066
6.102
5.904
6.725
6.042
6.107
4.584
4.418
5.811
6.489
6.282
6.053
6.201
5.368
6.515
5.791
5.848
6.027
4.359
7.159
6.756
4.566
6.165
5.811
3.717
6.214
7.033
5.552
6.633
6.41
6.913
7.455
6.337
6.265
5.308
6.192
3.322
6.251
6.204
6.915
7.568
7.534
6.39
6.353
7.355
7.256
7.162
6.531
7.429
5.73
7.314
6.475
6.913
4.732
6.552
3.597
6.584
6.109
6.429
4.838
3.749
7.205
7.042
4.279
5.866
4.021
5.881
5.583
7.293
6.567
6.519
6.966
3.181
6.515
5.632
7.12
5.618
6.102
6.277
6.483
4.655
6.443
6.22
5.407
7.559
5.82
5.641
7.058
6.23
4.858
6.084
6.206
4.048
6.125
5.972
4.985
5.704
5.584
5.65
5.368
6.74
5.258
7.507
5.913
4.076
6.294
6.545
4.92
3.927
5.522
5.902
3.277
6.916
5.
5.662
7.042
6.37
5.465
5.843
6.75
5.689
6.459
7.339
6.271
5.753
6.019