# vtk DataFile Version 3.0
3D scalar data
ASCII
DATASET POLYDATA
POINTS 3936 float
-70.24 29.7 6.469
16.87 -35.01 32.
45.57 1.155 69.78
-0.5339 -41.12 28.27
5.687 56.93 -24.07
16.64 -20.3 -43.08
3.168 23.97 -8.49
-54.81 7.641 -9.239
44.09 -29.88 -31.85
6.835 5.254 25.14
17.43 3.89 -38.84
-8.491 21. -14.47
42.54 29.81 3.318
14.72 63.82 48.33
-61.54 12.21 0.8346
-32.69 -49.16 49.63
73.43 -10.06 3.325
67.95 -30.83 12.71
-64.47 -20.06 -50.55
-11.74 -46.79 29.78
25.43 26.34 75.91
44.87 62.81 -48.27
2.086 50.16 -14.07
-2.625 41.11 -19.78
-29.93 -7.414 12.41
-42.54 -30.38 -31.65
26.54 72.74 51.36
-22.12 -80.35 4.85
-20.02 24.58 50.96
17.9 3.328 47.29
-35.76 -68.62 -16.01
60.38 -26.15 -15.9
80.47 49.74 -1.437
17. -33.23 71.21
59.1 -46.74 30.08
-2.98 36.89 -31.87
-50.82 -36.29 -39.07
0.5871 46.9 -74.79
-14.38 7.384 18.45
-1.024 62.68 -31.64
7.59 7.215 41.06
65.38 9.262 57.
26.7 -24.36 58.97
-34.06 -29.44 -22.85
-31.48 -20.79 -47.03
44.19 6.034 27.24
78.95 10.83 -5.274
52.75 27.66 12.76
-50.96 -2.028 36.26
-36.27 52.86 45.91
-14.91 80.99 -37.14
48.75 -3.088 -37.62
-11.15 -25.08 -10.63
82.46 -19.19 -48.74
77.97 38.65 51.33
-32.96 27.87 16.42
-6.026 35.06 54.97
-14.76 -52.92 -20.37
-40.74 -12.5 20.53
26.73 -11.5 -14.5
48.15 60.68 -19.35
87.52 26.88 42.17
26.53 -65.25 14.46
49.84 -20.31 32.14
6.728 -59.15 -23.59
45.04 -48.11 11.38
-44.53 29.67 -26.02
-4.483 30.99 -0.0564
49.11 -19.12 -14.82
-33.97 -44.14 10.48
4.785 29.24 90.21
31.63 1.755 -87.02
58.3 -13.81 58.85
-47.88 8.375 -48.11
-8.763 18.41 -41.5
-10.77 -57.31 36.99
-51.71 -63.92 4.743
-29.82 51.85 -7.188
12.05 -16.77 23.89
-56.82 -43.34 -8.069
-42.03 13.54 4.536
53.47 68.27 8.67
-10.59 32.84 -20.66
-9.823 -24.29 15.
13.15 76.59 56.69
74.51 19.73 51.76
37.72 61.69 -28.43
8.968 -2.464 -52.49
45.97 -8.968 -48.1
-39.47 70.5 22.95
1.513 -36.03 65.63
-64.46 42.95 9.197
20.21 -33.43 -63.73
-49.92 46.51 13.53
8.006 -27.94 28.31
76.14 12.83 33.25
1.99 -7.233 -1.457
-4.753 -20.94 -20.82
22.63 57.2 -20.49
-68.36 23.03 -13.05
-4.341 -67.75 -50.84
41.98 36.87 -45.7
-23.92 11.24 73.72
-35.95 -34.63 67.12
-22.7 25.79 25.62
24.32 -41.33 -48.87
2.052 -54.36 61.36
-70.69 42.89 35.45
-7.086 -68.9 8.727
37.22 17.88 -1.37
22.63 56.28 30.86
83.86 -26.08 -9.347
-60.92 24.39 38.22
64.9 -25.98 47.47
67.85 -3.466 -16.4
1.293 -84.26 -4.019
13.36 -65.84 19.98
22.38 -23.75 23.75
46.9 -79.06 -14.21
37.4 -4.688 61.81
-25.71 -19.04 6.588
44.61 -69.98 -35.38
-33.05 -30.37 -9.846
-8.413 -1.963 28.25
15.48 -21.18 -39.79
-81.98 5.67 29.73
34.46 -64.66 -25.03
15.12 15.21 -64.98
34.71 -39.63 8.898
-52.99 -27.04 -54.86
39.34 -29.19 62.26
87.5 -6.492 28.89
-17.62 47.79 -2.244
85.6 8.958 -25.74
21.75 8.718 -16.56
-61.07 41.69 -22.45
-68.21 -30.14 40.03
55.44 0.6295 -22.18
-32.1 26.01 -30.05
57.61 22.89 22.4
23.91 -0.395 9.01
-16.55 18.53 27.08
-21.44 -2.655 77.41
5.339 2.492 -60.53
29.25 8.247 15.94
-64.29 -4.653 42.35
-70.97 -24.65 -29.9
-38.16 -25.97 -11.26
11.28 42.09 -44.88
-0.1812 5.312 4.187
54.24 -2.106 -64.24
-20.51 61.72 54.31
-24.27 -83.68 -8.286
-0.5349 12.18 -69.23
39.6 -78.68 -2.431
-18.92 2.833 -2.35
35.62 12.17 -49.35
5.371 53.48 7.834
55.06 26.95 -55.64
1.695 48.83 30.44
21.85 56.06 12.09
34.24 -53.42 -42.98
-52.99 61.99 47.49
11.49 15.58 2.792
8.688 -29.58 13.45
-48.48 -19.22 36.49
-21.41 -55.24 -4.061
62.24 -31.05 -59.05
7.257 83.2 0.4205
39.99 57.72 53.72
66.19 25.11 60.76
-18.33 -17.54 -19.05
-29.81 60.08 -17.77
-0.005637 -2.304 -49.23
-13.53 87.82 0.7131
-21.49 0.5513 54.24
6.157 -10.58 -60.11
10.86 -33.46 50.47
24.64 -85.21 -23.51
5.69 -48.66 80.05
16.01 26.38 -72.23
-10.08 -28.11 -77.67
42.36 65.31 -7.783
-47.93 60.38 -21.08
5.434 74.31 -30.26
10.45 -18.03 49.44
-14.09 68.22 65.31
-14.64 83.86 25.26
-40.58 11.22 29.7
27.97 67.7 27.27
9.597 -41.31 -11.17
47.78 37.17 -59.77
-26.52 42.65 67.39
16.53 11.72 -32.04
14.24 -14.48 -14.85
-15.17 -74.41 -17.1
25.51 18.26 -6.29
-63.67 -15.34 0.4859
13.66 29.08 95.43
-26.65 51.35 6.522
-26.03 -62.81 37.34
31.9 -9.371 8.325
-14.94 41.88 18.41
-9.426 38.36 -76.8
33.9 75.5 -0.9085
-60.26 29.06 57.85
23.53 28.18 91.14
-31.86 18.08 24.13
-9.689 -72.73 21.95
20.01 -54.23 4.974
71.91 -47.62 18.12
50.86 -26.56 -43.6
57.81 4.259 6.653
91.35 -27.43 10.74
-38.1 -6.947 -2.684
52.82 -55.74 47.16
73.42 22.93 -12.79
65.97 63.57 11.92
42.93 -19.22 18.95
26.38 -54.76 22.28
64.75 8.498 -19.87
24.01 -43.56 41.13
91.46 -39.65 17.32
-3.808 -13.91 6.762
-1.978 -53.59 30.26
44.28 -48.7 -44.59
-43.78 -38.1 -9.365
54.88 -2.427 76.73
-44.97 -46.18 -15.09
-56.07 -29. -43.68
37.8 -37.62 40.27
12.03 -68.01 -31.71
22.21 -31.49 56.77
-66.06 -36.83 25.03
38.43 -65.46 -32.33
48.89 -25.46 1.348
-14.82 -27.26 84.28
-2.411 -20.81 46.38
-7.483 -18.16 -45.77
17.28 -18.41 -56.94
-37.52 33.09 -70.21
-35.5 4.416 -51.28
-38.87 4.886 -38.76
-54.19 -39.24 38.71
44.54 44.31 4.299
17. 27.82 -82.71
47.49 -61.18 57.98
45.11 -37.61 0.5801
16.01 -38.67 -9.308
-27.28 71.25 7.494
-39.76 -68.51 8.606
3.478 54.54 43.26
31.53 50.81 60.75
-17.81 11.12 -47.36
80.14 29.44 -43.71
-49.89 3.574 -30.22
86.37 7.588 26.74
3.129 -37.46 -37.6
71.24 41.11 -46.63
79.18 -44.93 42.05
-72.58 30.98 -29.88
-24.92 29.1 -42.45
-14.51 31.86 25.62
37.86 -4.429 28.15
-22.08 42.48 -14.73
-25.16 -33.25 19.24
15.62 -23.39 33.56
55.31 -20.26 -27.11
-24.83 60.42 -36.64
63.9 -37.62 -22.66
72.17 -22.75 51.94
32.76 27.62 15.62
-59.75 8.281 -21.45
-7.953 20.72 56.99
-32.66 25.51 34.63
-25.36 29.44 69.17
-70.73 -1.442 -18.74
-10.91 -3.194 48.25
33.72 -8.554 -44.53
-72.4 -38.52 26.63
101.3 0.6408 -6.82
-4.242 -0.2996 -75.31
35.49 -58.33 -57.44
24.22 -44.59 -2.116
29.7 -12.94 -56.51
-70.17 -6.469 11.37
50.34 35.5 22.38
-22.87 -55.97 -29.9
20.22 50.74 69.5
18.21 10.61 12.64
9.615 28.04 2.048
18.92 11.81 55.07
-1.249 23.02 -21.2
-0.2697 38.63 9.143
-20.38 -45.94 19.77
73.57 -19.19 -60.1
24.67 43.81 35.91
17.62 -2.93 -61.26
-11.66 42.86 -36.11
-51.6 -48.08 19.89
-35.61 -62.56 -7.37
5.749 14.81 33.14
19.29 4.238 35.97
-33. -0.9652 -28.42
-60.69 35.97 59.23
-31.69 16.77 -13.5
-39.54 49.56 0.02787
-43.89 22.49 22.97
-21.04 36.97 -26.41
29.92 19.48 33.23
-14.98 -25.73 -65.2
21.03 70.75 -21.12
2.391 3.107 28.23
-57.07 -42.11 56.97
49.81 49.15 31.34
-13.47 -37.7 -55.96
47.42 9.412 81.82
-59.41 36.92 5.217
-17.71 -23.74 -41.08
-39.53 21.33 -4.845
26.14 48.18 22.03
4.802 -8.551 -24.32
-49.08 65.82 -9.051
15.49 -50.71 -58.41
18.18 78.13 -13.68
-30.53 64.79 -5.114
17.38 83.53 -25.51
-43.05 -25.33 47.97
-6.68 -46.18 -12.01
95.88 2.172 -19.86
63.7 46.76 36.19
-12.36 -34.51 -1.163
44.14 38.66 -47.6
51.63 13.28 21.3
-10.58 -47.38 78.43
72.89 40.98 -21.47
-27.39 -2.487 92.43
15.03 61.15 74.67
37.81 17.5 50.85
58.58 -73.98 -8.317
-1.179 49.02 -29.54
32.42 4.478 -22.7
50.54 -25.16 58.81
22.94 -21.46 -19.98
27.99 -1.86 -33.67
25.86 -19.55 -46.89
-7.352 2.27 24.77
48.8 33.77 37.1
28.19 22.44 -19.2
46.91 5.532 59.08
26.7 74.67 16.86
-66.07 49.8 -14.02
-3.146 -6.344 -33.47
13.98 -21.51 62.43
27.2 -10.23 -76.28
5.757 40.21 -21.13
-22.21 13.01 60.92
52.87 -14.08 -46.1
-16.26 -53.75 43.72
-26.37 -39.64 -0.447
11.27 18.24 54.75
-41.56 76.53 -16.19
0.9526 12.86 59.82
3.822 -2.497 78.81
5.24 85.2 12.01
6.905 9.555 -37.23
35.98 -13.14 -4.309
51.41 9.962 71.32
16.85 71.67 22.79
15.63 -0.4585 -29.81
44.81 3.075 -48.6
3.144 -73.54 26.82
-42.76 53.39 32.91
19.66 -13.16 7.642
-18.59 -14.57 53.76
-48.45 41.9 9.23
-16.27 -68.18 42.89
-16.88 79.16 12.42
6.144 -89.43 -18.07
-6.599 36.53 83.57
-57.21 -4.776 8.807
44.97 -36.21 52.42
30.43 74.09 -9.432
7.342 -82.93 38.19
-23.7 35.14 30.78
70.7 -33.59 -11.24
12.58 53.74 -40.3
-15.47 -14.68 -7.177
29.04 51.59 -23.37
86.81 1.568 55.49
-50.65 36.21 -3.494
-57.1 -46.3 19.59
-12.86 30.89 50.89
-25.75 -36.48 74.93
-51.95 37.95 50.85
72.12 -22.82 2.324
83.73 -15.47 -0.649
16.87 -24.88 3.2
-50.91 -12.12 -14.56
45.38 -82.14 -0.1682
-74.75 26.78 8.864
33.88 10.9 0.1049
-36.06 -46.56 -25.98
15.17 -60.4 22.31
-19.83 40.45 86.47
-58.93 11.39 44.27
52.8 82.98 18.73
-34.97 12.2 66.22
79.23 32.58 7.712
4.973 55.08 -52.48
38.44 -22.77 -45.38
81.88 46.08 9.638
56.05 -17.58 8.753
7.411 -84.77 9.378
-30.56 1.737 2.51
50.94 -25.66 69.66
14.28 -58.79 -6.307
12.24 -29.56 22.19
60.24 67.99 -1.24
13.05 -42.57 2.031
34.95 -46.2 25.87
-21.36 -44.19 -23.47
-10.44 -76.73 -4.293
58.88 -12.96 -18.66
54.84 4.899 -9.783
-36.94 -33.73 17.47
73.12 -28.46 -20.03
-58.74 -23.07 3.581
14.86 6.258 79.67
30.64 -88.27 0.1869
40.59 -0.7868 80.56
-3.785 -30.42 7.174
66.34 -40.92 42.06
71.02 -32.51 -33.97
-13.5 -36.31 -32.69
49.6 -76.54 12.37
-49.6 -4.143 -62.55
83.31 9.986 -2.215
-20.93 -15.46 72.98
-32.87 -58.98 27.67
26.17 -51.47 -12.78
27.74 -34.38 -10.73
-54.85 19.74 71.71
49.96 30.9 77.95
16.29 -44.72 -71.91
19.93 -72.01 -43.12
20.72 -7.748 -42.64
55.16 6.396 3.367
-38.13 -35.6 77.88
-57.53 -2.688 -25.16
36.04 -42.46 -4.948
-41.47 24.12 -3.119
-19.78 -15.94 -43.93
-2.811 51.38 40.62
-24.83 6.956 -56.76
38.45 -23.97 35.5
35.98 -44.69 79.1
2.725 -9.993 40.15
-56.27 -13.81 -59.43
46.86 18.9 -61.1
61.7 35.93 42.89
-43.6 -21.21 -23.25
-65.96 -30.22 54.7
38.44 -63.01 28.71
40.19 44.01 -23.25
22.43 -47.61 10.22
-13.67 11.51 -72.83
-50.25 -49.19 -3.455
22.82 -59.71 58.86
-26.38 29.96 -13.61
45.68 35.97 -33.49
-8.832 43.52 60.46
-8.256 29.29 29.55
8.499 -3.747 -40.27
63.9 33.98 17.54
11.91 -54.78 50.46
56.33 -53.62 18.11
69.47 -36.63 26.12
60.02 -10.11 18.32
-13.98 8. -32.71
43.55 12.02 -72.09
56.71 -49.24 -49.27
-30.51 -37.51 37.01
-1.728 -3.911 38.03
-27.46 25.44 -1.533
-13.25 58.44 76.92
59.37 -15.99 53.91
-49.34 -14.79 -70.43
-41.21 46.76 -54.91
30.43 -55.02 36.91
-77.56 2.377 -37.55
53.05 -24.02 -54.08
32.63 -30.45 -25.25
66.19 3.292 -33.13
-16.15 14.39 29.8
45.97 42.11 69.72
-40.7 62.78 -40.56
43.63 18.21 31.09
71.36 -55.71 -27.1
-53.79 -13.94 -18.88
-42.09 26.66 77.89
-6.787 32.06 -61.01
-14.57 19.45 70.06
-65.06 -53.14 -25.32
-5.77 76.11 7.58
-37.39 11.07 -40.14
17.45 -28.6 -52.33
-40.51 -34.55 -20.17
14.96 14.64 42.14
76.79 15.31 -48.52
-69.59 12.22 -19.4
-52.2 28.21 -63.45
27.46 -43.84 -15.12
-36.96 4.249 -9.282
48.73 35.84 65.25
-13.11 -70.17 7.416
[...]
POINT_DATA 3936
SCALARS radius float
LOOKUP_TABLE default
7.406
5.406
5.619
7.113
5.597
6.424
6.528
6.727
7.452
6.705
7.096
5.427
7.199
7.549
7.794
7.799
7.104
7.777
7.711
6.141
7.849
7.618
7.552
5.494
6.886
5.692
7.247
7.867
7.352
5.687
6.738
7.222
7.622
7.838
7.812
6.463
7.657
7.206
6.697
7.177
7.295
7.854
7.423
6.977
7.424
6.933
7.558
5.751
7.535
6.504
7.469
7.445
6.273
7.633
7.649
7.443
7.258
7.052
6.999
7.005
7.673
7.609
7.334
6.333
6.735
7.417
7.531
7.162
6.81
7.459
7.627
7.638
7.088
7.67
7.279
6.772
7.689
6.26
7.02
7.652
6.633
7.626
7.078
7.026
7.863
7.369
7.556
6.564
6.268
7.68
7.744
7.633
6.85
7.576
7.167
7.592
6.793
7.197
7.664
7.231
7.558
7.819
7.147
7.382
6.989
7.771
7.618
7.853
7.759
7.015
6.566
7.139
7.617
6.877
7.514
7.731
6.027
6.964
7.489
7.18
7.216
7.842
7.509
6.494
7.368
7.741
7.642
6.649
7.177
7.111
6.408
6.429
5.987
7.698
7.091
7.679
7.658
7.251
7.368
7.385
6.819
7.066
7.642
7.528
6.951
7.58
7.608
6.214
7.709
6.23
7.363
7.733
7.545
7.63
6.831
7.056
7.413
7.194
7.666
5.608
7.252
7.616
7.557
7.093
6.446
7.742
7.263
7.661
7.897
7.554
7.579
7.025
7.613
6.783
7.847
6.778
6.242
7.314
7.549
7.548
7.509
7.654
7.584
7.589
6.417
6.771
7.595
7.747
7.299
6.336
7.463
6.936
6.544
6.947
6.976
6.887
7.137
7.833
7.893
7.303
7.897
7.039
7.48
7.668
7.832
7.817
7.789
6.546
7.896
7.309
7.892
6.361
6.908
7.81
7.061
6.999
7.61
7.457
7.179
6.666
6.935
7.466
7.665
6.8
6.617
7.291
7.482
7.152
7.508
7.761
7.389
7.664
7.554
7.908
7.756
7.474
7.875
7.221
6.666
7.709
7.665
6.152
7.281
7.82
7.367
7.819
7.734
7.255
7.128
7.551
7.523
7.704
7.57
7.469
7.686
7.449
6.786
6.987
7.625
7.606
7.641
7.418
7.117
6.853
7.405
6.338
6.367
6.819
7.701
7.066
7.79
6.997
7.628
7.354
7.33
7.663
7.022
7.068
7.38
7.604
7.595
7.794
7.56
6.821
7.249
6.636
7.356
7.62
7.397
7.074
7.025
7.202
7.09
7.025
7.671
7.513
7.3
6.826
6.91
7.628
7.539
6.97
7.039
7.168
7.635
6.93
7.528
7.177
6.926
6.98
7.622
7.632
6.833
7.648
7.518
7.566
7.615
6.802
7.272
7.363
7.212
7.037
7.815
7.581
7.463
7.593
6.87
7.421
7.231
7.584
7.646
7.108
7.368
7.157
7.069
7.562
7.624
7.577
7.344
7.6
7.587
6.785
7.621
6.948
6.484
6.45
6.668
7.162
6.925
7.528
7.602
6.893
6.546
7.293
7.648
6.808
7.441
7.251
7.831
6.709
7.153
7.88
6.524
7.538
7.595
7.241
6.984
7.197
7.547
7.027
6.62
7.592
7.482
6.567
7.21
7.824
6.822
7.864
7.803
6.885
7.71
7.86
7.755
7.86
7.529
7.875
7.641
6.913
7.504
7.851
7.204
7.88
7.153
7.56
7.831
7.555
7.884
6.56
7.652
7.86
7.69
7.159
7.231
6.68
7.814
7.609
6.621
7.836
7.79
6.95
7.493
7.823
7.117
7.854
7.14
7.868
7.705
7.002
7.739
6.59
7.32
7.563
7.843
7.308
7.212
7.002
7.745
7.769
7.1
7.624
7.863
6.878
7.414
7.807
6.926
7.708
6.479
7.633
7.495
7.074
7.413
7.055
7.623
7.812
7.813
7.753
7.456
7.274
7.606
7.462
7.31
7.383
7.174
7.468
7.576
6.956
7.683
7.178
6.959
7.51
7.607
7.398
7.609
7.624
7.417
7.357
7.635
7.308
7.739
7.485
7.453
7.555
6.86
7.133
7.73
7.595
5.955
7.6
7.409
7.083
7.655
7.672
7.315
6.762
7.084
7.65
7.524
7.617
7.541
7.497
7.608
6.886
7.22
7.574
6.898
7.637
7.559
7.088
7.643
7.491
7.797
7.577
7.367
7.627
7.048
7.412
7.591
7.513
7.35
7.302
7.277
7.649
7.196
7.116
7.624
7.649
7.279
7.563
7.224
6.852
7.097
7.738
6.904
7.188
7.176
7.015
7.135
7.115
6.392
6.719
7.662
7.552
7.583
7.632
7.145
7.517
7.626
7.365
7.088
7.043
7.612
7.641
6.668
7.217
7.661
7.025
7.419
7.635
7.668
6.634
7.551
7.264
7.668
7.653
6.95
7.14
7.588
7.56
7.381
6.906
7.571
7.218
7.599
6.789
7.59
7.593
7.076
7.319
7.238
7.617
7.423
7.559
7.185
7.001
7.082
7.661
7.612
7.635
7.354
6.891
7.126
7.607
7.577
6.757
7.639
7.613
7.536
7.504
6.292
7.548
7.582
7.579
7.159
7.524
7.544
7.046
7.233
7.36
7.606
7.412
7.031
6.942
7.384
7.051
7.415
7.864
7.472
7.08
7.632
7.653
7.629
7.459
7.488
7.006
7.655
6.512
7.665
7.366
6.609
7.437
7.751
6.742
7.689
6.992
7.56
7.041
7.487
7.558
7.214
7.554
7.284
7.386
6.73
6.811
7.228
6.731
6.733
7.58
7.918
7.55
7.463
7.488
7.171
7.918
7.327
7.279
7.434
7.304
7.865
7.208
7.663
6.946
7.603
7.3
7.834
7.581
7.907
7.114
7.495
7.615
7.583
7.599
7.473
7.362
7.782
7.092
7.168
7.853
7.181
7.13
7.529
6.782
7.484
7.016
7.582
7.877
7.278
7.549
7.605
7.766
7.546
7.589
6.849
7.144
7.113
7.751
7.428
7.02
7.147
7.639
7.351
7.218
7.349
7.867
7.548
6.899
7.106
7.835
7.874
7.115
7.873
7.803
7.068
7.834
7.184
7.357
7.694
7.746
7.501
7.379
7.364
7.186
7.867
6.89
7.649
7.335
7.088
7.686
7.869
7.509
7.47
7.267
7.898
7.543
7.745
7.793
7.394
6.865
6.761
6.782
7.848
7.542
7.518
7.888
7.821
7.067
7.456
7.516
6.935
7.7
7.555
7.699
7.239
7.633
7.135
7.895
7.851
6.938
7.3
7.35
7.464
7.826
7.771
7.819
7.238
7.807
7.832
7.476
7.715
6.853
7.055
7.233
6.972
7.585
7.886
7.864
7.851
7.59
7.013
7.864
7.568
6.855
7.
7.746
7.061
7.782
7.806
7.419
7.405
7.831
7.801
7.225
7.474
7.837
7.364
7.754
7.685
7.721
7.39
7.655
6.306
7.081
7.643
7.187
7.754
7.661
7.075
7.334
7.633
7.485
7.765
7.667
7.835
7.629
7.431
7.591
7.395
7.332
7.795
7.781
7.774
7.669
7.754
7.611
7.576
7.684
7.193
7.723
7.426
7.723
7.224
6.82
7.759
7.269
6.872
7.574
7.601
7.791
7.632
7.644
7.634
7.644
6.941
7.205
7.594
7.114
6.951
7.653
7.702
7.618
7.63
7.2
7.513
7.708
7.594
7.613
7.546
7.605
7.415
7.358
7.445
7.611
7.76
6.894
6.592
7.607
7.692
7.615
7.364
7.787
7.297
7.033
7.602
7.632
7.594
7.618
7.632
7.625
7.461
7.208
7.633
7.258
7.528
7.651
7.377
7.434
7.609
7.481
7.666
7.308
6.863
7.688
6.939
7.584
7.628
7.662
7.073
7.505
7.561
7.152
7.039
7.618
7.44
7.013
7.573
7.613
7.614
7.62
7.349
6.708
7.182
7.751
7.285
7.53
7.647
6.92
7.563
7.485
7.197
7.14
7.702
7.603
7.614
7.614
7.029
7.648
7.627
7.692
7.774
7.134
7.605
7.314
7.628
7.605
7.38
7.671
7.703
6.986
7.622
7.646
7.348
7.652
7.039
7.001
7.635
7.628
7.56
7.393
7.623
7.676
7.609
6.991
6.911
7.536
7.15
7.697
7.269
7.467
7.312
7.564
7.688
7.334
7.525
6.81
7.633
7.604
7.741
7.516
6.998
7.586
7.407
7.521
7.671
7.6
7.483
7.577
7.596
7.644
7.58
7.359
7.624
6.664
7.58
7.198
7.676
7.395
7.291
7.332
6.716
7.603
7.59
7.158
7.143
7.58
6.901
7.616
7.52
7.547
7.516
7.657
7.644
7.664
7.08
7.164
7.369
7.371
6.99
7.393
7.644
7.16
7.663
6.799
7.435
7.642
7.576
7.476
7.347
7.63
7.091
7.645
7.605
7.647
7.579
7.133
7.293
7.634
7.043
7.582
7.606
7.078
7.502
7.199
7.583
6.994
7.374
7.148
7.485
7.424
7.679
7.44
7.611
7.14
7.568
7.223
7.515
6.873
7.273
7.559
7.609
7.451
7.614
7.541
7.585
7.089
6.901
7.216
7.594
7.593
7.033
7.562
7.378
7.507
6.573
7.785
7.572
7.578
7.148
7.629
7.353
7.173
6.678
7.154
7.599
6.883
7.699
7.295
7.046
7.152
7.05
6.536
7.579
7.143
7.317
7.567
7.695
7.099
7.662
7.613
7.5
7.104
7.415
7.427
6.954
6.906
7.534
7.631
7.645
7.123
7.554
7.668
7.62
6.851
7.576
7.237
7.454
7.608
7.476
7.025
7.646
7.514
7.107
7.617
7.571
7.021
7.599
7.575
7.244
7.596
7.61
6.9
7.918
7.408
7.656
7.615
7.636
7.625
7.306
7.567
7.541
6.895
7.283
7.516
7.444
6.545
7.439
7.118
7.662
7.542
7.55
6.993
7.473
6.907
7.158
7.323
7.343
7.538
7.564
7.424
7.619
6.916
7.27
7.134
7.579
7.654
6.971
7.577
7.539
7.827
7.454
7.501
7.684
7.486
7.531
7.02
7.669
7.752
6.842
7.117
6.777
7.643
7.437
7.587
7.648
7.341
6.875
7.609
7.304
6.994
7.565
7.718
7.214
7.628
6.996
7.692
7.02
7.748
7.277
7.035
7.071
7.628
7.244
7.223
7.542
7.571
7.585
6.923
7.42
7.569
7.57
7.127
7.631
7.61
6.834
7.615
7.096
7.621
7.588
7.597
7.572
7.654
6.84
7.894
7.269
7.519
7.316
7.446
7.033
7.603
7.774
7.449
7.343
6.535
7.362
7.384
7.472
7.57
7.659
7.241
7.145
6.414
7.55
7.646
7.147
7.36
6.663
7.633
7.397
6.799
7.549
7.674
7.555
7.291
7.91
7.628
7.277
7.589
7.849
7.442
7.859
7.863
7.535
7.872
7.705
7.514
7.499
7.86
7.609
7.853
7.051
7.061
7.843
7.114
7.873
7.857
6.493
7.526
7.509
7.448
7.919
7.844
7.635
7.774
7.57
7.526
7.232
7.159
7.21
7.468
7.281
7.353
7.854
7.52
7.601
7.373
7.74
7.684
6.359
7.233
7.837
7.756
7.904
7.745
7.219
7.877
7.324
7.839
7.889
7.179
7.434
7.846
7.854
5.148
7.893
7.73
7.204
6.9
7.638
7.821
7.129
7.452
7.443
7.753
7.832
7.345
7.564
7.82
7.452
7.328
7.834
7.832
7.867
7.825
7.852
7.81
7.28
7.823
7.473
7.466
7.384
7.634
7.894
7.744
7.496
7.867
7.467
7.746
7.869
7.562
7.66
7.861
7.87
7.896
7.817
7.867
7.525
7.826
7.904
7.855
7.562
7.704
7.589
7.51
7.7
7.589
7.534
7.883
7.774
7.746
7.83
7.666
7.654
7.84
7.071
7.812
7.851
7.86
7.837
7.817
7.078
7.837
7.835
7.871
7.842
7.729
7.612
7.689
7.835
7.77
7.832
7.698
7.772
7.844
7.518
7.64
7.287
7.845
7.887
7.808
7.24
7.817
7.252
7.196
7.71
7.787
7.009
7.873
7.881
7.88
7.219
7.811
7.521
7.869
7.13
7.785
7.752
7.703
7.792
7.493
7.757
7.161
7.854
7.628
7.823
7.835
7.8
7.674
7.371
7.739
7.834
7.838
7.599
7.771
7.656
7.426
7.838
7.477
7.582
7.856
7.24
7.185
7.688
7.01
7.843
7.73
7.686
7.096
7.794
7.059
7.477
7.659
7.799
7.552
7.166
7.331
7.663
7.553
7.275
7.713
7.025
6.765
7.219
7.736
7.025
7.822
7.847
7.847
7.341
7.791
7.309
7.507
7.785
7.54
7.228
7.439
7.532
7.73
7.315
7.778
7.594
7.689
7.8
7.354
7.703
7.122
7.48
7.395
7.794
7.796
7.73
7.684
7.191
7.273
7.827
7.683
7.814
7.501
7.629
6.722
7.426
7.781
7.691
7.648
7.778
6.848
7.104
7.682
7.813
7.612
7.597
6.965
7.256
7.188
7.538
7.516
7.832
7.726
7.702
7.639
7.681
7.808
7.584
7.782
7.481
7.391
7.758
7.667
7.774
7.73
7.575
7.041
7.836
7.767
7.646
7.776
7.662
7.534
7.802
7.759
7.809
7.725
7.636
7.425
7.632
7.716
7.772
7.607
7.737
7.655
7.331
7.288
7.443
7.727
7.662
7.635
7.307
7.324
7.749
6.781
7.537
7.599
7.805
7.636
7.662
7.649
7.642
7.274
7.687
7.49
7.61
7.807
7.227
7.191
7.66
7.74
7.285
7.503
7.536
7.527
7.724
7.723
7.667
7.625
7.106
7.589
7.646
7.578
6.585
7.244
7.643
7.245
7.674
7.283
7.616
7.63
7.522
7.268
7.681
7.659
7.726
7.487
7.635
7.551
7.677
7.242
7.599
7.68
7.498
7.648
7.754
7.22
7.543
7.616
7.266
7.692
6.909
7.76
7.594
7.164
7.62
7.624
7.345
7.626
7.689
7.617
6.884
6.958
7.672
7.093
7.638
7.457
7.689
7.691
7.707
7.682
7.712
7.677
7.601
7.222
7.445
7.458
7.611
7.585
7.378
7.656
7.626
7.314
7.655
7.646
7.276
7.656
6.794
7.626
7.576
7.597
7.67
7.528
7.304
7.577
7.075
7.651
7.188
7.204
7.637
7.491
7.657
7.584
7.486
7.122
7.497
7.189
7.642
7.552
7.659
7.225
7.421
7.614
7.574
7.635
7.682
7.552
7.623
7.202
7.616
7.608
7.571
7.631
6.717
7.593
7.559
7.646
7.316
7.566
7.386
6.751
7.666
7.65
7.105
7.648
7.015
7.351
7.393
7.662
7.624
7.619
7.472
7.473
6.677
7.643
7.609
7.582
7.623
6.909
7.613
7.218
7.198
7.616
7.591
7.656
7.628
6.913
7.331
7.629
7.437
7.544
7.44
6.679
7.566
6.783
7.336
6.886
7.173
7.525
7.217
7.519
7.602
7.18
7.165
7.473
7.573
7.628
7.615
6.665
7.231
6.918
7.508
7.617
7.542
7.507
7.624
7.488
6.951
7.638
7.502
7.208
7.637
7.564
7.627
7.538
7.676
6.911
7.649
7.663
7.549
7.012
7.627
7.677
7.209
7.13
6.944
7.272
7.63
7.623
7.084
6.829
7.204
7.629
7.027
7.658
7.587
7.642
7.641
7.642
7.624
7.598
7.355
7.579
7.029
7.605
7.604
7.557
7.198
7.464
7.433
7.124
7.623
7.592
7.4
7.67
7.607
7.277
7.561
7.642
7.376
7.299
7.487
7.612
7.643
7.1
7.573
7.493
7.124
7.136
7.648
7.251
7.475
7.619
7.152
7.635
7.65
7.687
7.24
7.613
7.597
6.949
7.312
7.508
7.677
7.355
7.212
7.639
7.645
7.587
7.17
7.46
7.651
6.628
7.479
7.44
7.325
7.311
7.52
7.505
7.357
7.599
7.684
7.212
7.63
7.617
7.596
7.672
7.352
7.634
7.083
7.347
7.465
7.642
7.465
7.615
7.114
7.374
7.225
7.653
7.541
7.506
7.479
7.569
7.598
7.591
6.999
7.643
7.338
7.643
7.425
7.14
6.933
7.615
7.425
6.937
7.569
7.529
7.622
7.571
7.67
7.348
7.231
7.574
6.077
7.462
7.364
7.62
7.572
7.635
7.119
7.242
7.168
7.636
7.764
7.582
7.618
7.634
7.612
7.638
7.136
7.629
7.532
7.321
7.609
6.686
7.583
7.389
7.286
7.343
7.625
7.58
7.579
7.061
7.541
7.447
7.592
7.572
7.604
7.495
7.182
7.585
7.591
7.578
7.593
7.694
7.353
7.502
7.609
6.979
7.438
7.388
7.316
6.892
7.594
7.395
7.092
7.228
7.633
7.218
6.655
7.578
7.461
7.434
7.073
7.366
7.406
7.496
7.552
7.091
6.523
7.13
7.622
7.656
6.945
7.102
7.186
6.707
7.083
7.065
7.671
6.971
7.546
7.306
6.671
7.546
7.67
7.548
7.619
7.592
6.921
7.632
7.547
7.599
7.425
7.64
7.496
7.481
7.61
7.642
7.694
7.594
7.193
7.613
7.612
6.81
7.55
7.635
7.077
7.633
6.992
7.3
7.594
7.534
7.494
6.708
7.015
7.597
7.036
7.238
7.617
7.676
7.433
7.605
7.618
7.076
7.472
7.615
7.64
7.615
7.56
7.029
7.532
7.597
7.583
7.402
7.182
7.605
7.584
7.6
7.565
7.237
7.634
7.237
7.439
7.508
7.608
7.126
7.579
7.38
7.504
7.096
7.538
7.662
7.649
7.831
7.138
7.618
7.637
7.551
7.485
7.546
7.581
7.586
7.474
7.637
7.356
6.971
7.56
7.348
7.619
7.59
7.621
7.041
7.597
7.543
7.48
7.422
7.6
7.564
7.555
6.803
6.521
7.606
7.214
7.597
7.096
7.123
7.038
7.389
7.4
7.594
7.57
7.539
7.35
7.463
7.608
6.929
7.564
7.581
7.006
7.614
7.567
7.578
7.609
7.573
7.609
7.451
7.425
6.668
7.664
7.513
7.564
7.584
7.026
7.601
7.573
7.575
7.555
7.102
7.485
6.68
7.5
7.572
6.941
7.106
7.306
7.587
7.504
7.465
7.394
7.286
7.302
7.68
7.378
7.284
7.482
7.639
6.948
6.933
7.457
6.821
7.549
7.368
7.107
6.782
7.585
7.575
7.492
6.966
6.927
6.388
7.554
7.616
7.107
7.414
7.565
6.858
7.467
7.584
7.566
7.607
7.428
7.655
7.58
7.145
7.306
7.297
7.551
7.639
7.436
7.626
7.585
7.679
6.94
7.383
7.509
7.006
7.454
7.859
7.609
6.811
7.317
7.17
7.856
7.234
7.863
7.543
7.746
7.514
6.87
7.151
6.366
7.249
7.388
7.482
7.459
7.511
7.73
7.386
7.612
7.604
7.605
7.142
7.284
7.592
7.612
7.838
7.603
7.86
7.061
7.738
7.392
7.918
7.551
7.242
7.361
7.284
6.938
7.638
7.307
7.259
6.8
7.467
7.122
7.314
7.555
7.474
7.527
6.553
6.313
7.109
7.87
7.529
7.53
7.852
7.237
7.552
6.801
7.301
7.423
7.876
7.284
7.47
7.535
7.459
7.837
6.722
7.448
7.023
7.203
7.901
7.652
6.82
7.034
7.688
7.622
6.829
7.148
7.217
6.732
5.928
7.664
7.468
7.364
6.689
7.336
7.281
7.237
7.599
7.598
7.547
6.176
7.267
7.497
7.856
7.526
6.616
7.043
7.548
7.579
7.545
7.324
7.232
7.399
7.086
7.851
7.9
7.573
7.483
7.476
7.558
7.873
7.59
7.012
7.044
7.208
6.987
7.862
7.885
7.53
7.843
7.889
7.347
7.597
7.585
7.397
7.423
7.298
7.535
7.475
7.611
6.853
7.881
7.055
6.967
7.856
7.299
6.227
7.648
6.611
7.906
7.102
7.913
7.573
7.839
6.783
7.819
7.745
7.53
7.782
7.591
5.97
7.847
6.486
7.877
6.995
7.825
7.445
7.049
7.313
7.599
6.486
7.36
7.705
7.886
7.587
7.687
7.395
5.852
6.928
6.906
7.012
7.71
7.553
7.059
7.849
7.919
7.617
7.823
7.852
7.62
7.821
7.826
7.866
7.527
7.281
7.564
7.225
7.745
7.819
7.708
7.852
7.521
7.554
7.166
7.873
7.851
7.695
7.741
7.847
7.859
7.687
7.715
7.84
7.408
7.909
7.241
7.838
6.386
7.833
7.681
7.676
7.826
7.831
6.532
7.833
6.917
7.496
7.858
7.437
7.894
7.797
7.472
6.815
7.87
7.746
7.38
7.871
7.798
7.787
7.824
7.843
7.496
7.422
7.851
7.815
7.876
7.369
7.777
7.831
7.583
7.814
7.832
6.877
7.353
7.678
7.859
7.761
7.615
7.783
6.232
7.818
7.873
7.551
7.776
7.664
7.837
7.575
7.827
7.859
7.763
7.433
7.831
7.794
7.804
7.789
7.241
7.9
7.835
7.862
7.401
7.885
7.89
7.867
7.821
7.768
7.838
7.529
7.487
7.873
7.748
7.842
7.762
7.708
7.865
7.866
7.856
7.877
7.846
7.469
7.849
7.75
7.853
7.866
7.711
7.394
7.799
7.579
7.534
6.982
7.846
7.36
7.538
7.78
7.842
7.792
7.873
7.891
7.783
7.674
7.909
7.858
7.452
7.816
7.162
7.027
7.496
7.745
7.845
7.715
7.579
7.771
7.495
7.887
7.889
6.979
7.846
7.745
7.837
7.522
7.228
7.087
7.58
7.867
7.215
7.877
7.834
7.849
7.872
7.053
7.892
6.941
7.829
7.439
7.779
6.816
7.797
7.867
7.821
7.851
7.896
7.841
7.77
7.885
7.859
6.928
7.835
7.862
7.866
7.77
7.865
7.877
7.91
7.524
7.128
7.214
7.866
7.818
7.77
7.28
7.857
7.438
7.366
7.825
7.851
7.211
7.828
7.113
7.568
7.474
7.537
7.657
7.667
7.597
7.876
7.791
7.364
7.771
7.735
7.903
7.79
7.742
7.245
7.832
7.87
7.793
7.798
7.854
7.483
7.8
7.651
7.728
7.807
7.79
7.807
7.743
7.847
7.715
7.721
7.751
7.811
7.734
7.423
7.73
7.44
7.853
7.739
7.344
7.741
7.129
7.806
7.744
7.361
7.759
7.741
7.278
7.529
7.792
7.784
7.77
7.034
7.733
7.711
7.815
7.37
7.696
7.82
7.807
7.514
7.785
7.815
7.825
7.793
7.779
7.332
7.831
7.822
7.778
7.757
7.57
7.819
7.791
7.732
7.826
7.678
7.771
7.33
7.393
7.853
7.654
7.67
7.199
7.444
7.764
7.203
7.708
7.197
7.277
7.757
7.846
7.626
7.755
7.288
7.44
7.658
7.75
6.807
7.091
7.75
7.801
6.991
7.833
7.81
7.763
7.736
7.341
7.753
7.756
7.664
7.76
7.196
7.829
7.842
7.693
7.699
7.735
7.371
7.767
7.85
7.775
7.668
7.783
7.27
7.737
7.836
7.672
7.749
7.759
7.03
7.778
7.748
7.239
7.755
7.807
7.703
6.729
7.38
7.751
7.643
7.765
7.731
7.745
7.744
7.725
7.628
7.715
7.667
7.416
7.735
7.442
7.71
7.736
7.694
7.477
7.769
7.774
7.765
7.738
7.471
7.697
7.717
7.657
7.439
7.708
6.821
7.703
7.821
7.752
7.593
7.647
7.664
7.507
7.705
7.665
7.608
7.33
7.735
7.774
7.512
7.787
7.705
7.735
7.798
7.58
7.63
7.619
7.745
7.682
7.54
7.738
7.681
7.612
7.61
7.726
7.698
7.68
7.719
7.738
7.722
7.452
7.259
7.416
7.69
7.692
7.488
7.591
7.756
7.502
7.707
6.768
7.694
7.496
7.699
7.674
7.601
7.695
7.276
7.549
7.646
7.296
7.689
6.719
7.011
7.762
7.616
7.758
7.513
7.164
7.674
7.657
7.761
7.705
7.718
7.607
7.676
7.616
7.643
7.583
7.723
7.693
7.684
7.036
7.558
6.843
7.721
7.653
7.196
7.665
7.716
7.369
7.764
7.609
7.653
7.685
7.516
6.63
7.757
7.544
7.435
7.403
7.384
7.624
7.567
7.494
7.721
7.711
7.599
7.567
7.625
7.713
7.062
7.517
7.679
7.546
7.511
7.658
7.642
7.607
7.555
7.652
7.679
7.592
7.65
7.732
7.673
7.66
7.267
7.622
7.493
7.648
7.608
7.597
7.655
7.634
6.851
7.614
7.677
7.227
7.678
7.67
7.65
7.483
7.695
7.607
7.302
7.329
7.593
7.435
7.632
7.611
7.484
7.601
7.626
7.631
7.654
7.504
7.412
6.982
7.145
7.628
7.579
7.587
7.556
7.385
7.647
7.527
6.83
7.377
7.649
7.706
7.011
7.013
7.728
7.677
7.586
6.971
7.501
7.104
7.506
7.625
7.235
7.676
7.578
7.665
7.592
7.554
7.677
7.59
6.876
7.704
7.584
7.691
7.702
7.633
7.302
7.663
7.175
7.642
7.65
7.676
7.74
7.481
7.286
7.607
7.685
7.523
7.196
7.426
7.682
7.634
6.925
7.618
7.644
7.639
6.976
7.619
7.633
7.519
7.667
7.434
7.497
6.91
7.53
7.037
7.714
7.706
7.615
7.183
7.632
7.575
7.568
7.663
7.157
7.516
7.594
7.323
7.607
7.582
7.653
7.551
7.481
7.653
7.627
7.63
7.622
7.631
7.178
7.539
7.23
7.022
7.653
7.088
7.616
7.604
7.651
7.615
7.704
7.656
7.659
7.653
6.718
7.427
7.335
7.663
7.496
7.612
6.617
7.627
7.626
7.081
7.623
6.94
7.643
7.609
7.596
7.674
6.609
7.438
7.358
7.608
7.654
7.565
7.682
7.626
7.618
7.355
7.574
7.603
7.661
7.548
7.626
7.635
7.323
7.635
7.603
7.639
7.723
7.482
7.649
7.541
6.903
7.678
7.618
7.662
7.181
7.583
7.61
7.391
7.642
7.584
7.636
7.648
7.547
7.467
6.853
7.566
7.144
7.64
7.648
7.623
7.263
7.297
7.141
7.639
7.535
7.623
7.657
7.265
7.585
7.667
7.61
7.668
7.527
7.365
7.624
7.084
7.489
7.435
7.569
6.818
7.592
7.574
7.579
7.629
7.65
7.422
7.621
7.583
7.601
7.447
6.631
7.637
7.654
7.668
7.173
7.393
7.683
7.538
7.464
7.654
7.592
7.211
7.54
7.069
7.097
7.612
6.527
6.669
7.346
7.469
7.653
6.913
7.693
7.151
7.403
7.621
7.642
7.627
7.53
7.063
7.616
7.514
7.639
7.288
7.559
7.586
6.552
7.336
7.604
7.323
7.438
7.69
7.64
7.608
7.676
7.09
7.637
7.607
7.593
7.522
7.597
7.659
7.71
7.653
7.571
7.651
7.68
7.586
7.608
7.514
7.33
7.241
7.363
7.618
7.596
7.168
7.403
7.635
6.366
7.619
7.629
7.67
7.623
7.62
7.587
7.46
7.601
7.637
7.423
7.482
6.743
7.166
7.478
7.633
7.681
7.559
7.451
7.56
7.404
7.397
7.571
7.692
7.602
7.469
7.645
7.612
7.031
6.923
7.64
7.394
7.522
7.644
6.957
7.518
7.425
7.603
7.59
7.63
7.436
7.484
7.557
7.551
7.166
7.033
7.645
7.574
7.661
7.588
7.686
6.865
7.581
7.595
7.271
7.574
7.169
7.594
7.632
7.159
7.59
7.415
7.527
7.606
7.594
6.834
6.971
7.448
7.612
7.625
7.656
7.396
7.692
7.464
7.237
7.581
7.651
7.583
7.509
7.657
6.656
7.071
7.677
7.394
7.455
7.61
7.412
6.83
6.944
7.578
7.602
7.444
6.982
7.118
6.829
7.013
7.39
7.614
7.604
7.589
7.646
7.578
7.244
7.548
7.577
7.554
7.587
7.654
7.638
7.629
7.604
7.636
7.663
6.963
7.538
7.007
7.513
7.67
7.609
7.614
7.645
7.427
7.577
7.552
7.354
7.611
7.362
7.599
7.529
7.657
7.623
7.113
7.65
7.636
7.601
7.64
7.605
7.601
7.628
6.949
7.011
7.616
7.641
7.043
6.93
7.136
7.559
7.613
7.652
7.539
7.499
7.542
7.639
7.585
7.632
7.62
7.505
7.473
7.574
6.739
7.175
7.704
7.613
7.567
7.577
7.599
7.629
7.667
7.567
7.64
7.625
7.242
7.237
7.53
7.583
7.448
7.549
7.631
7.562
6.792
7.566
7.13
7.383
7.586
7.675
7.438
7.653
7.169
7.325
7.559
7.557
6.78
7.607
7.513
7.659
7.563
7.158
7.389
7.546
7.358
7.646
7.436
7.515
7.463
7.618
7.564
7.557
7.577
7.61
7.614
6.766
7.071
7.411
7.555
7.627
7.605
7.627
7.484
7.209
7.623
7.565
7.604
7.616
7.594
7.616
7.094
7.513
7.404
6.428
7.59
7.004
7.606
7.579
7.588
7.586
7.46
7.635
7.657
7.656
7.405
7.448
7.55
7.331
7.208
7.371
7.07
7.526
7.599
6.802
7.55
7.643
7.589
6.862
7.065
7.567
7.61
7.564
7.624
7.623
7.569
6.619
7.542
7.36
7.591
7.604
7.601
7.476
7.621
7.194
7.522
7.556
7.592
7.613
7.569
7.656
7.612
7.533
7.
7.428
7.613
7.514