# vtk DataFile Version 3.0
3D scalar data
ASCII
DATASET POLYDATA
POINTS 497 float
-37.95 14.58 4.277
8.053 -24.74 16.08
24.51 -9.113 25.96
-4.163 -24.42 14.4
0.3516 33.55 -15.69
8.43 -5.784 -20.64
0.5832 23.82 2.165
-29.89 7.279 6.059
28.85 -15.44 -15.62
9.495 11.56 16.25
-0.8149 8.839 -19.99
-3.114 16.34 -7.463
27.9 21.17 -2.109
24.84 31.05 28.51
-40.1 1.088 9.302
-0.2823 -19.25 28.37
42.04 4.412 0.8781
39.31 -17.99 5.194
-30.28 -5.476 -14.03
-7.727 -32.77 4.844
17.79 -2.655 35.53
26.76 25.78 -21.51
1.69 36.8 -2.683
-3.808 28.78 -10.2
-18.33 -0.4499 5.799
-22.4 -13.99 -18.18
11.07 33.74 29.5
2.409 -40. -2.168
-15.4 8.828 30.86
11.04 -0.745 23.57
-9.934 -28.24 -7.753
40.4 -16.06 -8.207
42.13 27.59 1.569
26. -19.45 36.96
37.92 -30.6 16.81
-7.62 24.01 -17.37
-31.95 -18.78 -20.21
14.67 25.53 -28.59
-6.303 6.852 8.615
-11.51 36.7 -19.69
2.513 -9.155 21.2
31.42 -5.068 35.58
35.96 -22.04 27.36
-19.5 -10.21 -21.06
-20.69 -6.426 -34.65
31.32 8.796 14.52
45.35 15.03 -9.342
25.44 22.72 11.2
-22.96 -1.852 31.63
-12.67 41.26 18.04
3.732 47.89 -1.683
26.93 6.905 -18.13
-10.69 -9.2 -4.516
46. -20.52 -13.98
29.61 11.9 37.87
-29.06 18.75 14.18
9.919 12.06 30.34
4.644 -28.95 -10.89
-17.64 -3.287 26.38
17.43 -10.43 -11.02
27.85 27.11 -21.97
45.09 4.773 18.31
15.56 -31.51 -2.382
27.18 -11.84 13.17
9.933 -34.1 -23.37
33.67 -27.39 -3.268
-26.44 15.41 -14.79
-4.11 19.16 14.89
32.32 -7.472 -15.47
-31.39 -23.61 -3.367
-0.05798 -9.013 45.73
-7.29 -4.234 -40.94
33.52 -2.332 20.11
-21.78 16.39 -28.37
1.426 18.46 -30.06
-4.885 -26.6 16.86
-23.2 -29.61 -13.11
-11.3 33.32 -0.7582
4.553 -1.966 5.514
-38.63 -8.455 -13.22
-18.66 10.56 13.88
24.99 42.91 5.012
-13.7 22.33 -6.21
-11.77 -12.71 16.92
19.41 21.07 37.23
38.38 6.276 28.
21.93 30.53 -8.411
0.7027 3.885 -28.07
26.95 2.848 -21.72
-5.378 45.84 12.22
18.54 -22.63 22.51
-29.93 31.85 3.308
7.664 -10.85 -32.04
-21.16 41.67 7.979
1.491 -14.64 12.5
38. 4.252 31.47
-4.56 4.028 -5.387
-5.501 -6.677 -17.23
8.046 30.09 -6.333
-37.14 13.23 -5.604
-0.2564 -33.74 -27.83
20.69 19.98 -17.55
-8.876 16.41 42.65
-15.21 -13.03 36.29
-19.62 20.15 21.27
17.86 -15.59 -24.03
12.47 -35.1 23.17
-16.08 11.1 32.57
3.5 -38.12 -2.134
23.31 8.881 1.98
17.13 30.89 16.91
42.44 -5.544 9.642
-36.19 5.222 17.34
48.4 -1.439 21.01
27.5 -1.152 -6.839
13.01 -40.59 -11.59
16.01 -38.59 3.985
18.3 -9.691 2.928
27.79 -40.71 -3.831
23.58 -16.93 35.64
-21.59 -13.41 2.494
25.73 -34.65 -18.
-25.58 -3.874 -10.16
-8.039 -0.3804 27.45
3.75 -17.15 -19.05
-34.23 -10.17 17.65
23.29 -25.07 -12.16
3.519 4.604 -31.38
28.49 -27.72 0.3556
-37.22 -3.255 -24.92
27.44 -33.39 25.2
51.62 -8.869 8.021
-9.552 34.1 10.87
40.89 -9.814 -24.25
13.62 17.89 -2.403
-25.78 29.35 -20.39
-21.89 -28.34 17.76
40.63 6.095 -18.1
-16.16 15.26 -11.58
38.36 22.6 11.31
19.89 0.3305 12.91
-15.89 7.309 17.23
3.492 -1.754 34.89
-2.719 8.827 -40.99
17.15 8.477 15.16
-15.59 2.773 42.63
-37.4 8.919 -18.63
-27.59 -16.17 -6.832
14.88 22.37 -29.91
-2.81 7.203 8.898
22.85 0.1286 -36.16
2.348 24.95 41.32
-12.15 -33.34 -20.85
2.3 22.62 -36.15
39.57 -32.45 3.958
-17.29 7.433 -0.09254
5.529 22.16 -18.74
5.916 25.17 6.528
35.14 3.119 -29.81
4.004 24.04 24.36
8.177 23.45 10.62
23.61 -26.09 -30.8
-24.47 32.55 17.44
1.737 11.87 4.175
5.486 -14.93 7.333
-18.5 -13.43 6.957
-1.482 -17.6 -9.518
31.45 -15.15 -34.06
12.51 41.07 8.099
25.82 9.396 33.04
24.04 4.579 26.65
-16.64 -0.1107 -12.04
-7.792 42.89 -9.482
-9.779 2.096 -28.5
1.187 47.25 12.97
-10.37 -0.02604 38.16
-11.46 -16.22 -35.98
8.629 -22.04 19.62
37.82 -31.31 -10.02
12.91 -26.5 35.05
12.43 10.65 -23.76
-3.186 -20.3 -35.16
26.21 33. -9.536
-21.42 26.48 -6.524
4.201 40.77 -15.54
11.93 -12.88 29.79
-4.152 30. 37.03
0.5184 38.54 23.69
-28.11 0.2635 18.11
29.69 27.65 21.73
-2.13 -18.09 -9.145
26.74 14.05 -30.42
-3.401 16.55 33.72
7.124 7.467 -9.446
3.932 4.101 -7.652
1.195 -31.31 -14.04
14.38 18.11 -3.307
-30.04 -5.847 10.71
7.351 13.75 43.84
-17.66 28.93 11.08
2.578 -37.45 12.99
15.24 -1.948 -0.2444
-8.961 28.51 23.6
6.078 32.88 -27.57
18.53 29.98 2.938
-26.45 22.75 29.41
11.6 -1.084 47.69
-27.25 9.35 24.78
0.2422 -42.36 0.2385
4.021 -24.73 2.4
41.01 -18.94 5.003
25.42 -10.76 -27.6
35.4 15.73 6.315
47.79 -6.907 7.197
-30.65 -3.922 -0.5623
33.83 -30.53 16.06
44.43 16.91 -3.806
28.47 36.79 -9.152
31.75 -4.681 6.293
16.68 -22.62 8.381
34.2 8.319 -6.323
17.71 -30.86 11.21
47.07 -16.58 17.
-5.634 -6.526 6.171
4.573 -34.77 11.52
17.21 -16.28 -23.01
-34.23 -9.192 -13.03
35.69 -9.595 33.58
-19.8 -25.45 -0.3618
-30.12 -9.11 -26.96
17.1 -33.25 16.69
13.37 -35.74 -24.16
19.37 -21.75 23.7
-30.05 -19.49 11.66
35.96 -24.46 -23.08
27.69 -14.74 -2.074
-1.391 -21.74 38.73
0.2831 -6.053 31.81
-10.12 -19.7 -21.65
-3.938 -9.247 -26.96
-11.05 19.27 -37.63
-22.12 2.58 -25.12
-16.45 5.907 -13.95
-13.06 -25.25 27.97
31.89 31.08 2.46
11.17 12.46 -38.63
28.22 -39.75 12.54
30.87 -18.31 10.49
12.39 -13.23 -9.751
-3.033 31.65 14.12
-22.34 -32.69 2.512
12.56 28.13 34.22
15.3 7.318 41.83
-15.61 14.64 -24.81
37.65 17.23 -22.9
-27.6 12.63 -16.14
44.31 12.86 17.87
3.852 -19.62 -21.72
43.99 4.09 -18.52
47.5 -22.99 1.591
-27.44 18.96 -28.06
-21.36 26.62 -18.75
-2.11 16.92 17.31
34.97 -5.05 20.59
-3.425 25.07 1.667
-17.46 -25.36 12.68
14.46 -11.46 15.85
33.07 -5.586 -13.6
-10.13 26.92 -30.76
52.83 -10.87 -4.29
43.69 -6. 23.94
20.98 18.05 9.64
-24.6 7.859 -3.065
-1.804 11.24 33.07
-15.29 10.04 30.01
-15.43 23.16 39.33
-40.98 2.942 -6.035
-18.31 -3.141 26.74
17.57 -1.001 -30.32
-23.6 -16.5 25.72
50.62 3.027 -4.386
-16.47 6.808 -36.69
18.11 -14.1 -38.67
8.613 -26.88 -10.23
9.145 -1.997 -42.26
-38.68 -10.48 0.2091
30.43 14.01 19.36
-9.299 -23.88 -19.78
13.2 9.876 29.6
9.673 11.06 3.188
7.726 23.74 9.145
5.737 -0.5922 35.34
5.764 20.86 -16.63
2.961 34.65 17.31
-7.317 -30.18 -3.513
32.51 0.869 -26.84
8.052 14.51 16.6
-4.2 -5.312 -39.
-6.902 26.78 -24.54
-38.3 -12.47 2.273
-11.33 -38.15 -7.01
6.107 -1.116 11.11
18.11 1.868 12.89
-15.93 3.322 -13.46
-25.89 32.22 18.07
-12.91 12.71 1.451
-17.72 38. 0.1221
-24.66 11.5 11.14
-12.9 36.83 -13.95
20.31 18.57 23.69
-17.01 -9.375 -31.83
17.48 36.7 -20.31
-5.207 2.313 21.88
-10.77 -13.73 20.61
30.94 33.54 16.
-5.144 -26.91 -32.8
24.3 -4.984 42.66
-31.76 28.98 5.629
-20.7 -22.23 -27.88
-25.65 18.92 -0.1709
16.87 21.73 22.66
-4.355 -4.416 -16.23
-22.08 37.82 -7.78
9.912 -24.52 -32.31
10.34 38.01 6.957
1.144 37.91 2.634
15.38 41.27 -5.655
-25.09 -14.09 20.95
4.238 -25.99 3.393
47.48 -6.082 -15.37
25.71 37.53 13.48
-8.377 -19.51 3.74
25. 22.19 -19.33
30.48 13.95 19.21
-0.2886 -19.31 27.53
34.17 17.22 -13.12
-8.497 2.751 40.89
16.85 21.91 37.37
22.9 4.222 26.08
36.7 -29.04 -4.884
-8.328 21.19 -18.82
14.8 4.352 -8.146
32.24 -19.84 24.61
4.556 -6.846 -7.566
13.79 9.233 -21.46
6.707 -11.25 -32.32
-8.671 -4.768 14.7
34.12 19.8 27.7
21.56 9.153 -12.
21.75 -8.174 23.87
14.88 47.3 7.087
-33.85 24.3 -10.01
-11.86 1.942 -25.93
10.28 -26.28 33.65
2.256 -16.18 -41.84
1.345 17.72 -8.735
10.13 20.2 35.11
18.13 -3.949 -16.35
-4.424 -25.08 15.4
-14.51 -15.23 -9.207
2.523 10.32 28.63
-9.865 46.12 1.32
0.7551 4.222 22.15
9.637 -13.51 38.51
14.88 41.6 20.18
-2.923 9.751 -18.97
27.01 -2.337 -5.267
18.99 -3.658 36.65
15.88 28.82 17.39
9.199 -2.599 -19.07
24.8 12.63 -29.59
13.74 -42.84 5.707
-15.6 33.67 28.51
16.03 -7.353 2.171
-11.64 -13. 33.44
-18.59 24.28 7.156
2.808 -32.7 26.5
-1.002 39.83 25.42
0.8429 -41.11 -15.67
3.54 9.535 43.6
-22.65 -2.699 13.47
31.31 -31.56 15.09
22.81 32.74 3.83
2.497 -41.13 15.46
-12.14 31.68 24.83
39.43 -8.781 -4.231
14.44 32.25 -16.76
-4.976 2.637 -4.196
15.04 18.78 -11.12
53.03 4.268 8.9
-25.57 18.62 -0.7267
-10.63 -36.82 8.656
-7.935 21.55 27.99
-2.554 -19.37 36.08
-22. 21.76 26.51
40.99 -5.941 9.797
38.58 7.654 6.699
6.444 -16.75 1.577
-37.34 2.56 -4.823
45.48 -20.03 3.868
-33.25 18.91 17.17
23.95 8.996 2.658
-21.81 -25.78 -14.09
5.25 -30.11 4.237
-1.756 4.52 46.54
-32.51 9.126 27.77
16.27 43.36 -7.437
-22.6 11.51 37.35
49.16 16.06 4.971
-0.8249 32.83 -27.67
19. -14.29 -24.93
37.36 26.77 -11.17
30.11 -2.672 3.985
25.02 -40.87 2.698
-17.04 -0.488 1.938
25.95 -21.18 22.83
15.05 -36.03 -15.26
17.41 -21.39 8.581
35.61 34.14 2.687
16.15 -24.51 -4.73
23.3 -27.45 7.833
-21.14 -3.828 -10.59
14.37 -43.13 -8.692
28.98 -12.72 -14.94
34.19 7.619 -6.372
-29.91 -22.05 8.843
41.51 -0.362 -3.772
-24. -12.47 0.4026
12.69 -15.08 42.87
26.15 -38.34 -7.685
24.38 -17.53 35.98
-6.013 -9.913 1.377
45.13 -14.38 20.3
41.35 -17.73 -11.44
3.867 -21.27 -23.17
42.33 -27.36 15.73
-26.98 5.015 -28.28
41.41 7.876 25.22
-5.174 -9.104 44.85
-20.5 -30.39 0.9097
16.93 -23.02 -19.17
25.45 -15.35 -0.5769
-28. -3.3 30.39
32.52 -2.756 34.53
9.788 -26.55 -35.35
29.15 -23.81 -25.62
4.168 2.167 -30.95
30.67 21.29 -0.4286
-11.68 -26.68 28.73
-30.61 4.513 -15.13
28.06 -21.52 -12.41
-8.469 19.35 12.76
-17.45 -9.703 -22.23
10.26 32.97 31.93
-8.258 14.49 -30.78
23.46 -21.52 20.49
21.64 -30.5 30.37
-0.0212 -7.814 28.11
-29.26 5.419 -31.6
15.15 10.58 -37.34
25.52 7.199 41.6
-29.14 -1.167 -15.84
-10.32 -35.35 18.01
26.64 -29.01 2.817
27.33 19.78 -5.328
19.95 -12.44 2.465
-22.98 17.29 -34.68
-33.25 -22. -6.769
26.75 -40.82 10.98
-15.3 25.84 -6.224
35.33 12.95 -19.86
-1.114 30.02 34.74
-6.53 15.54 20.16
-4.048 -9.037 -27.41
40.21 23.37 15.21
15.56 -38.49 19.03
34.76 -20.54 7.921
34.02 -16.86 13.45
32.43 0.2635 17.2
-10.52 8.308 -13.02
17.6 24.16 -31.59
38.73 -12.63 -24.4
-18.15 -24.6 15.56
2.034 -8.975 18.74
-5.51 23.7 2.901
-8.169 16.05 43.9
38.42 -7.84 23.73
-17.18 6.024 -39.4
-15.74 27.46 -29.83
38.28 -35.45 4.456
-30.68 18.67 -26.13
31.11 -9.585 -34.46
16.96 -13.52 -9.974
41.05 3.277 -16.49
-14.61 10.93 28.4
16.96 9.656 43.55
-22.89 29.45 -18.93
POINT_DATA 497
SCALARS radius float
LOOKUP_TABLE default
7.797
6.221
6.466
7.816
6.44
7.393
7.512
7.741
7.656
7.87
7.751
6.244
7.635
7.842
7.864
7.635
7.655
7.555
7.567
7.066
7.801
7.87
7.854
6.322
7.653
6.55
7.855
7.683
6.671
6.544
7.72
7.674
7.572
7.596
7.634
7.437
7.827
7.57
7.823
7.841
7.499
7.772
7.794
7.631
7.868
7.901
7.822
6.618
7.884
7.485
7.837
7.836
7.219
7.819
7.556
7.641
7.75
7.854
7.835
7.787
7.6
7.586
7.669
7.288
7.75
7.873
7.907
7.669
7.836
7.48
7.549
7.832
7.63
7.489
7.878
7.594
7.843
7.203
7.866
7.854
7.633
7.857
7.622
7.886
7.804
7.714
7.907
7.874
7.213
7.82
7.833
7.838
7.83
7.817
7.903
7.827
7.683
7.838
7.709
7.612
7.867
7.754
7.489
7.749
7.67
7.692
7.626
7.649
7.626
7.654
7.847
7.699
7.619
7.676
7.613
7.617
7.677
7.66
7.634
7.526
7.631
7.618
7.63
7.472
7.626
7.544
7.893
7.638
7.665
7.511
7.374
7.398
7.853
7.581
7.912
6.608
7.582
6.467
7.887
7.877
7.916
7.905
7.883
7.866
7.793
7.845
7.846
7.151
7.795
7.885
7.857
7.49
7.851
7.863
7.133
7.883
7.9
7.878
7.813
6.453
7.894
7.761
7.825
7.916
7.418
7.812
7.888
7.184
7.799
7.882
7.903
7.847
7.843
7.816
7.66
7.8
7.182
7.887
7.857
7.796
7.908
7.817
7.842
7.891
7.385
7.791
7.722
7.684
7.817
7.291
7.818
7.647
7.779
7.922
7.8
7.755
7.87
7.697
7.638
7.772
7.696
7.742
7.69
7.614
7.726
7.659
7.551
7.532
7.627
7.691
7.689
7.32
7.665
7.672
7.778
7.699
7.604
7.619
7.67
7.596
7.643
7.59
7.584
7.63
7.615
7.585
7.646
7.58
7.596
7.551
7.568
7.584
7.653
7.6
7.594
7.652
7.608
7.619
7.67
7.594
7.552
7.079
7.519
7.555
7.64
7.526
7.54
7.54
7.214
7.939
7.883
7.588
6.269
7.921
7.588
7.887
7.502
7.916
7.83
7.876
7.228
7.872
7.622
7.89
7.457
7.294
7.327
7.847
6.828
7.864
7.251
7.874
7.878
7.903
7.872
7.847
7.867
7.848
7.891
7.86
7.911
7.077
7.843
7.849
7.864
7.851
7.897
7.877
7.856
7.849
7.889
7.886
7.894
7.89
7.886
7.891
7.852
7.855
7.864
7.817
7.855
7.895
7.846
7.907
7.87
7.883
7.847
7.884
7.885
7.866
7.827
7.875
7.892
7.888
7.869
7.821
7.888
7.809
7.822
7.861
7.887
7.904
7.777
7.887
7.839
7.89
7.8
7.888
7.847
7.83
7.83
7.877
7.861
7.889
7.815
7.833
7.799
7.785
7.776
7.799
7.731
7.863
7.874
7.808
7.461
7.422
7.853
7.828
7.898
7.838
7.77
7.766
7.533
7.785
7.773
7.85
7.896
7.888
7.786
7.72
7.842
7.634
7.507
7.692
7.842
7.765
7.807
7.682
7.801
7.777
7.618
7.741
7.656
7.556
7.698
7.769
7.81
7.654
7.658
7.691
7.639
7.726
7.651
7.63
7.705
7.67
7.677
7.677
7.67
7.593
7.681
7.646
7.678
7.668
7.691
7.642
7.665
7.549
7.672
7.591
7.62
7.716
7.611
7.683
7.67
7.615
7.594
7.628
7.635
7.67
7.662
7.624
7.694
7.599
7.642
7.669
7.584
7.692
7.629
7.583
7.655
7.657
7.6
7.652
7.667
7.585
7.648
7.649
7.591
7.563
7.651
7.68
7.575
7.604
7.622
7.536
7.641
7.618
7.598
7.632
7.658
7.571
7.599
7.575
7.584
7.595
7.625
7.609
7.594
7.619
7.6
7.545
7.629
7.61
7.598
7.579
7.608
7.618
7.641
7.595
7.572
7.632
7.552
7.571
7.591
7.635
7.596
7.591
7.572
7.638
7.523
7.534
7.633
7.589
7.553
7.562
6.853
7.6
7.531
7.633
7.539
7.45
7.438
7.573
7.571
7.353
7.318
7.411
7.454
7.107
6.988
6.705
6.836
7.047
6.627
6.753
6.343
SCALARS O2 float
LOOKUP_TABLE default
6.971e-6
6.609e-6
6.684e-6
6.567e-6
6.794e-6
6.434e-6
6.407e-6
6.722e-6
6.581e-6
6.321e-6
6.387e-6
6.368e-6
6.536e-6
6.969e-6
6.978e-6
6.696e-6
6.645e-6
6.722e-6
6.698e-6
6.807e-6
6.702e-6
6.85e-6
6.633e-6
6.633e-6
6.457e-6
6.745e-6
6.979e-6
6.967e-6
6.67e-6
6.491e-6
6.709e-6
6.741e-6
6.975e-6
6.983e-6
6.985e-6
6.628e-6
6.979e-6
6.967e-6
6.286e-6
6.976e-6
6.42e-6
6.983e-6
6.975e-6
6.697e-6
6.971e-6
6.577e-6
6.968e-6
6.594e-6
6.972e-6
6.983e-6
6.966e-6
6.578e-6
6.434e-6
6.966e-6
6.978e-6
6.773e-6
6.561e-6
6.633e-6
6.726e-6
6.348e-6
6.96e-6
6.973e-6
6.659e-6
6.589e-6
6.984e-6
6.827e-6
6.659e-6
6.373e-6
6.649e-6
6.98e-6
6.981e-6
6.986e-6
6.694e-6
6.842e-6
6.719e-6
6.644e-6
6.985e-6
6.73e-6
6.225e-6
6.949e-6
6.569e-6
6.976e-6
6.515e-6
6.485e-6
6.977e-6
6.967e-6
6.707e-6
6.519e-6
6.698e-6
6.978e-6
6.681e-6
6.979e-6
6.664e-6
6.982e-6
6.398e-6
6.974e-6
6.243e-6
6.391e-6
6.507e-6
6.969e-6
6.984e-6
6.617e-6
6.978e-6
6.967e-6
6.675e-6
6.548e-6
6.97e-6
6.684e-6
6.868e-6
6.337e-6
6.63e-6
6.707e-6
6.979e-6
6.977e-6
6.421e-6
6.977e-6
6.812e-6
6.313e-6
6.982e-6
6.928e-6
6.581e-6
6.976e-6
6.597e-6
6.601e-6
6.474e-6
6.977e-6
6.622e-6
6.571e-6
6.687e-6
6.971e-6
6.981e-6
6.984e-6
6.662e-6
6.977e-6
6.282e-6
6.981e-6
6.969e-6
6.966e-6
6.494e-6
6.823e-6
6.322e-6
6.53e-6
6.621e-6
6.966e-6
6.331e-6
6.975e-6
6.97e-6
6.826e-6
6.896e-6
6.262e-6
6.972e-6
6.976e-6
6.977e-6
6.971e-6
6.973e-6
6.409e-6
6.495e-6
6.383e-6
6.967e-6
6.644e-6
6.382e-6
6.972e-6
6.976e-6
6.253e-6
6.426e-6
6.542e-6
6.439e-6
6.985e-6
6.751e-6
6.774e-6
6.616e-6
6.451e-6
6.982e-6
6.584e-6
6.978e-6
6.889e-6
6.992e-6
6.591e-6
6.975e-6
6.978e-6
6.516e-6
6.977e-6
6.79e-6
6.639e-6
6.986e-6
6.693e-6
6.979e-6
6.964e-6
6.944e-6
6.978e-6
6.445e-6
6.969e-6
6.698e-6
6.244e-6
6.225e-6
6.684e-6
6.293e-6
6.775e-6
6.976e-6
6.658e-6
6.85e-6
6.253e-6
6.657e-6
6.983e-6
6.543e-6
6.98e-6
6.975e-6
6.868e-6
6.969e-6
6.505e-6
6.779e-6
6.783e-6
6.614e-6
6.802e-6
6.712e-6
6.96e-6
6.976e-6
6.953e-6
6.466e-6
6.523e-6
6.543e-6
6.665e-6
6.976e-6
6.313e-6
6.811e-6
6.542e-6
6.797e-6
6.975e-6
6.831e-6
6.972e-6
6.802e-6
6.986e-6
6.684e-6
6.976e-6
6.982e-6
6.459e-6
6.98e-6
6.592e-6
6.673e-6
6.553e-6
6.973e-6
6.723e-6
6.442e-6
6.976e-6
6.797e-6
6.984e-6
6.978e-6
6.636e-6
6.327e-6
6.582e-6
6.979e-6
6.979e-6
6.886e-6
6.651e-6
6.962e-6
6.677e-6
6.973e-6
6.526e-6
6.98e-6
6.975e-6
6.976e-6
6.85e-6
6.369e-6
6.725e-6
6.418e-6
6.825e-6
6.489e-6
6.624e-6
6.978e-6
6.98e-6
6.964e-6
6.425e-6
6.526e-6
6.648e-6
6.64e-6
6.98e-6
6.973e-6
6.747e-6
6.682e-6
6.976e-6
6.967e-6
6.867e-6
6.969e-6
6.629e-6
6.969e-6
6.977e-6
6.647e-6
6.676e-6
6.56e-6
6.231e-6
6.38e-6
6.619e-6
6.447e-6
6.673e-6
6.709e-6
6.837e-6
6.332e-6
6.98e-6
6.764e-6
6.978e-6
6.969e-6
6.248e-6
6.303e-6
6.428e-6
6.982e-6
6.362e-6
6.967e-6
6.621e-6
6.976e-6
6.588e-6
6.956e-6
6.969e-6
6.454e-6
6.523e-6
6.975e-6
6.982e-6
6.975e-6
6.979e-6
6.97e-6
6.595e-6
6.572e-6
6.374e-6
6.974e-6
6.849e-6
6.657e-6
6.643e-6
6.854e-6
6.967e-6
6.512e-6
6.975e-6
6.971e-6
6.469e-6
6.728e-6
6.646e-6
6.673e-6
6.73e-6
6.967e-6
6.975e-6
6.594e-6
6.964e-6
6.585e-6
6.267e-6
6.823e-6
6.267e-6
6.5e-6
6.681e-6
6.395e-6
6.963e-6
6.401e-6
6.596e-6
6.98e-6
6.961e-6
6.588e-6
6.971e-6
6.978e-6
6.342e-6
6.783e-6
6.4e-6
6.588e-6
6.586e-6
6.538e-6
6.983e-6
6.471e-6
6.806e-6
6.968e-6
6.389e-6
6.405e-6
6.741e-6
6.578e-6
6.377e-6
6.904e-6
6.961e-6
6.969e-6
6.306e-6
6.825e-6
6.578e-6
6.969e-6
6.981e-6
6.973e-6
6.973e-6
6.663e-6
6.87e-6
6.674e-6
6.967e-6
6.761e-6
6.616e-6
6.753e-6
6.242e-6
6.399e-6
6.982e-6
6.589e-6
6.976e-6
6.63e-6
6.968e-6
6.791e-6
6.693e-6
6.599e-6
6.443e-6
6.842e-6
6.971e-6
6.968e-6
6.344e-6
6.975e-6
6.586e-6
6.983e-6
6.983e-6
6.969e-6
6.967e-6
6.981e-6
6.978e-6
6.563e-6
6.962e-6
6.423e-6
6.976e-6
6.415e-6
6.713e-6
6.968e-6
6.513e-6
6.976e-6
6.577e-6
6.629e-6
6.529e-6
6.978e-6
6.569e-6
6.536e-6
6.976e-6
6.635e-6
6.626e-6
6.975e-6
6.976e-6
6.966e-6
6.333e-6
6.975e-6
6.779e-6
6.572e-6
6.979e-6
6.835e-6
6.974e-6
6.984e-6
6.972e-6
6.6e-6
6.434e-6
6.98e-6
6.976e-6
6.975e-6
6.967e-6
6.56e-6
6.567e-6
6.978e-6
6.685e-6
6.618e-6
6.388e-6
6.689e-6
6.985e-6
6.705e-6
6.674e-6
6.96e-6
6.545e-6
6.972e-6
6.978e-6
6.974e-6
6.653e-6
6.978e-6
6.688e-6
6.532e-6
6.345e-6
6.979e-6
6.983e-6
6.976e-6
6.576e-6
6.791e-6
6.977e-6
6.417e-6
6.559e-6
6.969e-6
6.973e-6
6.714e-6
6.681e-6
6.632e-6
6.383e-6
6.972e-6
6.975e-6
6.812e-6
6.392e-6
6.411e-6
6.978e-6
6.83e-6
6.979e-6
6.971e-6
6.974e-6
6.975e-6
6.985e-6
6.351e-6
6.885e-6
6.631e-6
6.976e-6
6.979e-6
SCALARS glucose_extra float
LOOKUP_TABLE default
0.0008991
0.0008982
0.0008984
0.0008982
0.0008986
0.0008977
0.0008978
0.0008985
0.0008981
0.0008977
0.0008978
0.0008977
0.0008982
0.0008991
0.0008992
0.0008985
0.0008984
0.0008985
0.0008985
0.0008987
0.0008984
0.0008988
0.0008984
0.0008982
0.0008979
0.0008985
0.0008993
0.0008991
0.0008975
0.0008979
0.0008986
0.0008986
0.0008992
0.0008993
0.0008993
0.0008982
0.0008992
0.0008991
0.0008975
0.0008991
0.0008978
0.0008993
0.0008992
0.0008985
0.0008991
0.0008983
0.0008991
0.0008982
0.000899
0.0008992
0.0008991
0.0008981
0.0008978
0.000899
0.0008991
0.0008986
0.0008981
0.0008983
0.0008984
0.0008974
0.000899
0.0008992
0.0008984
0.0008981
0.0008993
0.0008987
0.0008983
0.0008977
0.0008982
0.0008993
0.0008993
0.0008993
0.0008985
0.0008987
0.0008986
0.0008984
0.0008994
0.0008985
0.0008974
0.0008989
0.000898
0.0008993
0.000898
0.000898
0.0008992
0.0008991
0.0008985
0.0008981
0.0008983
0.0008993
0.0008985
0.0008993
0.0008984
0.0008993
0.0008977
0.0008992
0.0008975
0.0008978
0.0008981
0.0008991
0.0008994
0.0008983
0.0008991
0.0008991
0.0008984
0.0008981
0.0008991
0.0008975
0.0008989
0.0008977
0.0008984
0.0008986
0.0008992
0.0008992
0.0008978
0.0008992
0.0008988
0.0008975
0.0008993
0.0008991
0.0008983
0.0008992
0.0008983
0.000898
0.000898
0.0008992
0.0008983
0.0008982
0.0008984
0.0008991
0.0008991
0.0008993
0.0008985
0.0008991
0.0008976
0.0008986
0.0008991
0.0008987
0.0008979
0.0008988
0.0008976
0.0008978
0.0008983
0.0008991
0.0008977
0.0008989
0.0008991
0.0008988
0.0008989
0.0008975
0.0008991
0.0008992
0.0008993
0.0008991
0.0008991
0.0008978
0.000898
0.0008978
0.0008989
0.0008982
0.0008978
0.0008991
0.0008993
0.0008975
0.0008977
0.0008982
0.0008979
0.0008993
0.0008987
0.0008986
0.0008983
0.0008979
0.0008993
0.0008982
0.0008993
0.0008987
0.0008993
0.0008982
0.0008991
0.0008992
0.000898
0.0008993
0.0008987
0.0008983
0.0008992
0.0008984
0.0008992
0.0008992
0.0008989
0.0008991
0.0008979
0.000899
0.0008983
0.0008975
0.0008974
0.0008985
0.0008976
0.0008987
0.000899
0.0008985
0.0008988
0.0008974
0.0008984
0.0008993
0.0008982
0.0008992
0.000899
0.0008986
0.0008991
0.000898
0.0008987
0.0008986
0.0008984
0.0008988
0.0008986
0.0008991
0.0008992
0.0008989
0.000898
0.0008981
0.0008981
0.0008984
0.0008992
0.0008976
0.0008987
0.0008981
0.0008987
0.0008992
0.0008989
0.0008991
0.0008987
0.0008994
0.0008985
0.0008992
0.0008993
0.0008979
0.0008992
0.0008982
0.0008984
0.0008981
0.0008991
0.0008984
0.0008979
0.0008992
0.0008988
0.0008994
0.0008992
0.0008983
0.0008973
0.0008983
0.0008993
0.0008993
0.0008986
0.0008983
0.0008989
0.0008983
0.0008992
0.0008981
0.0008988
0.0008992
0.000899
0.0008982
0.0008977
0.0008985
0.0008978
0.0008987
0.0008979
0.0008981
0.0008991
0.0008993
0.0008991
0.0008979
0.0008981
0.0008982
0.0008973
0.0008991
0.0008991
0.0008985
0.0008984
0.0008992
0.0008991
0.0008989
0.0008991
0.0008982
0.0008991
0.0008992
0.0008984
0.0008985
0.0008981
0.0008975
0.0008978
0.0008983
0.0008979
0.0008985
0.0008985
0.0008986
0.0008977
0.0008992
0.0008986
0.0008993
0.0008991
0.0008974
0.0008976
0.0008979
0.0008993
0.0008977
0.0008991
0.0008982
0.0008991
0.0008983
0.000899
0.0008991
0.0008978
0.0008981
0.0008992
0.0008994
0.0008992
0.0008993
0.0008991
0.0008982
0.0008983
0.0008977
0.0008991
0.0008989
0.0008985
0.0008984
0.0008989
0.0008991
0.000898
0.0008991
0.0008992
0.000898
0.0008985
0.0008984
0.0008985
0.0008985
0.0008989
0.0008992
0.0008983
0.000899
0.0008981
0.0008975
0.0008988
0.0008974
0.0008979
0.0008984
0.0008978
0.000899
0.0008978
0.0008982
0.0008993
0.0008989
0.0008981
0.0008992
0.0008993
0.0008977
0.0008987
0.0008977
0.0008982
0.0008981
0.000898
0.0008993
0.0008978
0.0008988
0.0008992
0.0008978
0.0008978
0.0008985
0.0008983
0.0008976
0.0008988
0.000899
0.0008991
0.0008974
0.0008988
0.0008983
0.0008991
0.0008993
0.0008992
0.000899
0.0008983
0.0008989
0.0008985
0.000899
0.0008987
0.0008983
0.0008987
0.0008975
0.0008978
0.0008993
0.0008982
0.0008992
0.0008982
0.0008991
0.0008987
0.0008985
0.0008983
0.0008977
0.0008988
0.0008991
0.0008991
0.0008977
0.0008993
0.0008982
0.0008992
0.0008992
0.0008991
0.0008987
0.0008993
0.0008992
0.0008981
0.000899
0.0008979
0.0008992
0.0008979
0.0008985
0.0008992
0.000898
0.0008992
0.000898
0.0008983
0.0008981
0.0008992
0.0008981
0.0008981
0.0008992
0.0008983
0.0008984
0.0008992
0.0008992
0.0008992
0.0008976
0.0008992
0.0008986
0.0008982
0.0008992
0.0008987
0.0008992
0.0008993
0.0008992
0.0008982
0.0008978
0.0008992
0.0008992
0.0008992
0.0008991
0.0008982
0.0008983
0.0008992
0.0008984
0.0008983
0.0008978
0.0008984
0.0008993
0.0008985
0.0008984
0.000899
0.0008981
0.0008991
0.0008993
0.000899
0.0008984
0.0008992
0.0008985
0.0008982
0.0008976
0.0008991
0.0008993
0.0008992
0.0008981
0.0008985
0.0008992
0.0008978
0.0008981
0.0008991
0.0008991
0.0008985
0.0008984
0.0008983
0.0008978
0.0008991
0.0008991
0.0008987
0.0008977
0.0008978
0.0008991
0.0008988
0.0008991
0.000899
0.0008991
0.000899
0.0008993
0.0008974
0.0008985
0.0008974
0.0008988
0.0008987
SCALARS glucose float
LOOKUP_TABLE default
0.2466
0.227
0.2125
0.2588
0.2305
0.218
0.2673
0.2675
0.2311
0.2707
0.2488
0.2109
0.2287
0.2549
0.2589
0.2264
0.2306
0.2126
0.2153
0.2122
0.2545
0.2633
0.2656
0.1856
0.2319
0.2118
0.2572
0.2273
0.1041
0.2114
0.2402
0.2319
0.21
0.2138
0.2197
0.2293
0.2521
0.209
0.2611
0.2546
0.2059
0.2423
0.246
0.2255
0.2595
0.2757
0.2513
0.2203
0.2625
0.253
0.2539
0.2623
0.2329
0.2505
0.2076
0.2257
0.2476
0.265
0.2601
0.2544
0.2144
0.2123
0.2322
0.2496
0.2516
0.265
0.2745
0.2351
0.2737
0.1961
0.2066
0.2531
0.2251
0.2008
0.2687
0.2205
0.2551
0.2525
0.268
0.2572
0.2414
0.2577
0.2266
0.2731
0.2479
0.2326
0.275
0.2706
0.2234
0.251
0.2605
0.254
0.2602
0.2504
0.2757
0.2518
0.2368
0.2638
0.2416
0.2163
0.2594
0.2479
0.1956
0.2382
0.2327
0.2376
0.2181
0.2291
0.2211
0.2327
0.2644
0.2367
0.2173
0.2262
0.2252
0.2169
0.2309
0.2322
0.2198
0.2043
0.2273
0.2172
0.2269
0.2689
0.2272
0.2057
0.2727
0.2286
0.2313
0.2009
0.1838
0.2208
0.2654
0.2106
0.2786
0.1053
0.2109
0.08396
0.2735
0.2618
0.2792
0.276
0.2713
0.2592
0.2563
0.2553
0.2556
0.218
0.2487
0.2725
0.2576
0.1975
0.2564
0.2586
0.146
0.2725
0.2761
0.2724
0.2496
0.1284
0.2755
0.2404
0.2519
0.2789
0.2253
0.2586
0.2728
0.1518
0.2535
0.2682
0.2755
0.2661
0.2551
0.2586
0.2237
0.2517
0.2202
0.2721
0.2575
0.2464
0.2766
0.2502
0.2602
0.2725
0.2125
0.2583
0.2338
0.2277
0.2509
0.2204
0.2597
0.2214
0.2509
0.2798
0.2567
0.2465
0.2704
0.2351
0.2201
0.2505
0.2326
0.2459
0.2364
0.2167
0.2439
0.2238
0.2069
0.2459
0.2186
0.2373
0.2335
0.2232
0.2325
0.2306
0.2502
0.23
0.215
0.2174
0.2347
0.2219
0.2298
0.2196
0.2119
0.2279
0.2482
0.2202
0.2262
0.2112
0.2181
0.2068
0.2133
0.212
0.2294
0.2144
0.2134
0.2316
0.2156
0.2252
0.2595
0.2212
0.207
0.1844
0.2098
0.2074
0.2254
0.2031
0.2049
0.2114
0.1615
0.2829
0.2623
0.2126
0.07573
0.2781
0.2123
0.2705
0.1992
0.2782
0.2526
0.261
0.1577
0.2648
0.2272
0.2707
0.1989
0.2079
0.224
0.2728
0.1142
0.259
0.1614
0.2718
0.2714
0.2748
0.269
0.2559
0.2594
0.2624
0.2715
0.2581
0.2676
0.142
0.255
0.2765
0.2589
0.2565
0.2738
0.2685
0.2673
0.2662
0.2745
0.2718
0.2753
0.2719
0.2702
0.2679
0.2675
0.2602
0.2651
0.2505
0.2572
0.274
0.266
0.2774
0.26
0.273
0.2559
0.2708
0.2627
0.269
0.2522
0.2609
0.2739
0.2731
0.2598
0.2512
0.2633
0.2491
0.2512
0.2675
0.273
0.2765
0.2432
0.2673
0.2626
0.2725
0.2508
0.2634
0.2643
0.2527
0.2526
0.2711
0.2651
0.2718
0.2573
0.2596
0.2471
0.2446
0.252
0.2469
0.2439
0.2686
0.2652
0.2578
0.2285
0.2198
0.2671
0.252
0.2756
0.2626
0.242
0.2411
0.239
0.2445
0.2425
0.2672
0.2702
0.2733
0.2532
0.2473
0.2643
0.2197
0.2315
0.2333
0.2545
0.2514
0.2581
0.2333
0.2565
0.2525
0.2278
0.2369
0.2232
0.2356
0.2339
0.2511
0.2488
0.2227
0.2236
0.2287
0.2272
0.2372
0.2294
0.219
0.2368
0.2332
0.2322
0.2358
0.2353
0.2131
0.2356
0.2213
0.2349
0.2252
0.2341
0.2278
0.233
0.2295
0.2294
0.2129
0.2175
0.2431
0.2162
0.2354
0.2255
0.2167
0.2135
0.2188
0.22
0.2255
0.2323
0.2182
0.239
0.2143
0.2303
0.2315
0.2119
0.2378
0.2189
0.224
0.2306
0.2319
0.2144
0.2304
0.234
0.212
0.2295
0.2297
0.213
0.2086
0.2228
0.236
0.2106
0.2198
0.2259
0.2046
0.2246
0.2172
0.2141
0.2207
0.2314
0.2185
0.2142
0.2105
0.2119
0.2135
0.2266
0.2241
0.2135
0.2239
0.2217
0.2151
0.2253
0.216
0.2204
0.2177
0.2156
0.2254
0.2208
0.2136
0.2101
0.2264
0.2069
0.2161
0.2214
0.2286
0.2137
0.2129
0.2099
0.2286
0.2064
0.2041
0.2288
0.2202
0.2068
0.2081
0.1328
0.2204
0.2102
0.2286
0.2042
0.1906
0.1924
0.2178
0.2173
0.1757
0.1727
0.1835
0.1896
0.1429
0.1298
0.1026
0.119
0.1373
0.1006
0.1153
0.08327
SCALARS pH float
LOOKUP_TABLE default
7.529
7.443
7.461
7.434
7.486
7.399
7.398
7.465
7.436
7.379
7.393
7.395
7.429
7.529
7.533
7.465
7.454
7.47
7.464
7.489
7.468
7.5
7.452
7.451
7.408
7.474
7.534
7.527
7.461
7.421
7.467
7.475
7.532
7.535
7.535
7.448
7.533
7.528
7.369
7.532
7.398
7.535
7.532
7.463
7.529
7.439
7.529
7.445
7.53
7.533
7.528
7.436
7.398
7.527
7.533
7.482
7.436
7.447
7.471
7.381
7.525
7.531
7.453
7.436
7.534
7.495
7.458
7.391
7.447
7.534
7.534
7.536
7.465
7.501
7.472
7.452
7.536
7.474
7.353
7.52
7.429
7.532
7.424
7.415
7.533
7.529
7.467
7.423
7.462
7.533
7.461
7.534
7.456
7.535
7.392
7.531
7.36
7.392
7.422
7.529
7.536
7.446
7.533
7.528
7.461
7.429
7.529
7.465
7.504
7.382
7.452
7.469
7.533
7.532
7.398
7.532
7.491
7.371
7.534
7.52
7.437
7.532
7.441
7.44
7.411
7.532
7.446
7.436
7.462
7.529
7.531
7.534
7.459
7.532
7.37
7.534
7.528
7.528
7.419
7.498
7.378
7.424
7.448
7.528
7.381
7.531
7.529
7.494
7.512
7.364
7.53
7.532
7.532
7.53
7.53
7.398
7.419
7.394
7.527
7.453
7.394
7.53
7.533
7.363
7.392
7.428
7.401
7.536
7.48
7.485
7.448
7.407
7.535
7.438
7.533
7.506
7.537
7.439
7.531
7.532
7.422
7.532
7.486
7.453
7.534
7.459
7.533
7.528
7.518
7.531
7.402
7.527
7.467
7.36
7.355
7.46
7.373
7.483
7.532
7.458
7.499
7.359
7.458
7.535
7.432
7.534
7.532
7.504
7.528
7.415
7.484
7.481
7.449
7.492
7.469
7.526
7.532
7.522
7.411
7.422
7.43
7.456
7.532
7.373
7.487
7.427
7.487
7.532
7.497
7.53
7.489
7.536
7.461
7.532
7.534
7.408
7.533
7.44
7.452
7.43
7.531
7.47
7.406
7.532
7.49
7.536
7.533
7.449
7.376
7.44
7.533
7.534
7.511
7.456
7.526
7.462
7.531
7.423
7.533
7.531
7.532
7.503
7.39
7.473
7.402
7.494
7.41
7.442
7.533
7.534
7.527
7.404
7.425
7.455
7.455
7.534
7.53
7.477
7.461
7.532
7.528
7.506
7.528
7.442
7.529
7.532
7.455
7.457
7.435
7.358
7.393
7.448
7.408
7.461
7.467
7.497
7.381
7.532
7.482
7.533
7.529
7.359
7.374
7.402
7.535
7.387
7.528
7.445
7.532
7.442
7.523
7.529
7.407
7.424
7.532
7.535
7.532
7.534
7.529
7.442
7.439
7.389
7.531
7.502
7.458
7.455
7.502
7.528
7.417
7.532
7.53
7.41
7.472
7.456
7.46
7.473
7.528
7.532
7.443
7.527
7.44
7.364
7.495
7.363
7.415
7.46
7.393
7.526
7.396
7.441
7.534
7.525
7.437
7.53
7.533
7.385
7.488
7.393
7.439
7.431
7.429
7.535
7.408
7.491
7.529
7.394
7.395
7.477
7.44
7.388
7.509
7.525
7.529
7.367
7.495
7.439
7.529
7.534
7.53
7.531
7.455
7.505
7.462
7.527
7.482
7.446
7.479
7.359
7.396
7.535
7.441
7.532
7.452
7.529
7.489
7.466
7.444
7.396
7.5
7.529
7.528
7.384
7.532
7.435
7.535
7.535
7.529
7.528
7.534
7.533
7.432
7.526
7.4
7.532
7.398
7.469
7.528
7.419
7.532
7.429
7.448
7.425
7.533
7.432
7.428
7.532
7.451
7.448
7.531
7.532
7.528
7.377
7.532
7.484
7.434
7.533
7.498
7.531
7.535
7.53
7.441
7.402
7.533
7.532
7.532
7.528
7.433
7.437
7.533
7.463
7.445
7.394
7.461
7.536
7.468
7.459
7.525
7.428
7.53
7.533
7.531
7.454
7.532
7.462
7.428
7.379
7.533
7.535
7.532
7.439
7.486
7.532
7.401
7.432
7.53
7.53
7.466
7.46
7.451
7.392
7.53
7.531
7.492
7.392
7.4
7.533
7.497
7.533
7.53
7.531
7.532
7.536
7.382
7.51
7.452
7.532
7.533
SCALARS phase float
LOOKUP_TABLE default
3.
6.
6.
4.
6.
6.
6.
6.
1.
4.
3.
6.
1.
4.
4.
2.
1.
1.
1.
6.
3.
4.
3.
6.
2.
6.
4.
3.
1.
6.
3.
1.
1.
2.
1.
6.
4.
1.
3.
4.
1.
3.
3.
1.
4.
4.
4.
6.
4.
6.
4.
3.
6.
3.
1.
3.
3.
4.
3.
3.
2.
1.
1.
6.
6.
4.
4.
1.
6.
1.
1.
4.
1.
1.
5.
1.
4.
6.
4.
4.
6.
4.
1.
4.
3.
3.
4.
4.
6.
4.
3.
3.
3.
4.
4.
4.
2.
3.
2.
2.
4.
3.
1.
3.
2.
1.
3.
2.
2.
2.
3.
3.
2.
3.
1.
1.
2.
1.
2.
1.
1.
2.
2.
6.
1.
1.
4.
1.
1.
1.
6.
6.
4.
1.
4.
1.
1.
1.
4.
5.
4.
4.
4.
4.
3.
4.
4.
6.
3.
4.
4.
1.
4.
4.
1.
4.
4.
4.
4.
6.
4.
3.
4.
4.
6.
3.
4.
1.
3.
4.
4.
4.
4.
3.
3.
6.
6.
4.
4.
3.
4.
3.
4.
4.
6.
6.
3.
3.
4.
6.
3.
3.
3.
4.
3.
3.
3.
3.
3.
3.
3.
3.
2.
1.
3.
2.
2.
6.
2.
2.
3.
6.
2.
2.
3.
3.
2.
2.
1.
2.
1.
1.
1.
1.
6.
1.
1.
1.
1.
1.
1.
1.
1.
1.
1.
1.
1.
1.
6.
1.
1.
6.
1.
1.
1.
1.
1.
1.
1.
4.
4.
1.
1.
5.
1.
5.
1.
5.
4.
5.
1.
4.
1.
4.
1.
6.
6.
6.
1.
4.
1.
4.
4.
4.
5.
5.
4.
4.
4.
4.
4.
1.
4.
6.
4.
4.
4.
4.
4.
4.
4.
4.
4.
4.
4.
4.
4.
6.
4.
4.
4.
4.
4.
4.
4.
4.
4.
4.
4.
4.
4.
4.
4.
4.
4.
4.
4.
4.
4.
4.
4.
4.
3.
4.
3.
4.
3.
4.
3.
4.
4.
4.
4.
4.
3.
3.
4.
3.
3.
3.
3.
4.
4.
3.
6.
6.
4.
3.
4.
3.
3.
3.
6.
3.
3.
4.
4.
4.
3.
6.
3.
3.
6.
3.
3.
3.
3.
3.
3.
3.
6.
3.
2.
6.
3.
3.
3.
3.
2.
3.
3.
3.
3.
2.
3.
3.
3.
2.
2.
3.
2.
3.
2.
3.
2.
2.
3.
6.
2.
2.
2.
2.
1.
2.
2.
2.
2.
2.
3.
2.
2.
2.
2.
2.
2.
2.
2.
1.
1.
6.
1.
1.
1.
2.
1.
1.
1.
1.
1.
1.
1.
1.
1.
1.
1.
1.
1.
1.
1.
1.
1.
1.
1.
1.
1.
1.
1.
1.
1.
1.
1.
1.
1.
1.
1.
1.
1.
1.
1.
1.
1.
1.
1.
1.
1.
1.
1.
1.
1.
1.
1.
1.
1.
1.
1.
1.
6.
1.
1.
1.
1.
1.
1.
1.
1.
1.
1.
1.
1.
1.
1.
1.
1.
1.
1.
1.
1.
VECTORS velocity float